Jobname.Temp
SP        R                             6-31+G(d)           
Number of atoms                            I               14
Charge                                     I                0
Multiplicity                               I                1
Number of electrons                        I               46
Number of alpha electrons                  I               23
Number of beta electrons                   I               23
Atomic numbers                             I   N=          14
           8           6           1           6           1           1
           6           1           1           6           1           6
           1           1
Current cartesian coordinates              R   N=          42
  3.29359664E+00 -2.86092157E+00 -7.89807723E-02  2.39010677E+00 -9.48083777E-01
  7.82936471E-01  2.20403187E+00 -7.13764434E-01  2.86308726E+00  1.50420431E+00
  1.27332947E+00 -7.75658126E-01  1.19714757E+00  6.52841924E-01 -2.72530189E+00
  3.07927173E+00  2.62856044E+00 -8.09719525E-01 -3.51235538E+00 -1.28039493E+00
 -5.98591927E-01 -5.32774856E+00 -2.23118812E+00 -4.84552431E-01 -1.99826637E+00
 -2.31509578E+00 -1.52429221E+00 -3.20584971E+00  1.02902474E+00  3.61993776E-01
 -4.81898093E+00  1.94334762E+00  1.26015656E+00 -8.18125697E-01  2.57821846E+00
  3.46706602E-01 -1.17361947E+00  4.34153052E+00 -6.86659776E-01 -4.00228505E-01
  3.16581136E+00  2.29684704E+00
Nuclear charges                            R   N=          14
  8.00000000E+00  6.00000000E+00  1.00000000E+00  6.00000000E+00  1.00000000E+00
  1.00000000E+00  6.00000000E+00  1.00000000E+00  1.00000000E+00  6.00000000E+00
  1.00000000E+00  6.00000000E+00  1.00000000E+00  1.00000000E+00
Number of basis functions                  I              130
Number of contracted shells                I               46
Number of primitive shells                 I              104
Highest angular momentum                   I                2
Largest degree of contraction              I                6
Shell types                                I   N=          46
           0          -1          -1          -1           2           0
          -1          -1          -1           2           0           0
           0          -1          -1          -1           2           0
           0           0           0           0          -1          -1
          -1           2           0           0           0           0
           0          -1          -1          -1           2           0
           0           0          -1          -1          -1           2
           0           0           0           0
Number of primitives per shell             I   N=          46
           6           3           1           1           1           6
           3           1           1           1           3           1
           6           3           1           1           1           3
           1           3           1           6           3           1
           1           1           3           1           3           1
           6           3           1           1           1           3
           1           6           3           1           1           1
           3           1           3           1
Shell to atom map                          I   N=          46
           1           1           1           1           1           2
           2           2           2           2           3           3
           4           4           4           4           4           5
           5           6           6           7           7           7
           7           7           8           8           9           9
          10          10          10          10          10          11
          11          12          12          12          12          12
          13          13          14          14
Primitive exponents                        R   N=         104
  5.48467170E+03  8.25234950E+02  1.88046960E+02  5.29645000E+01  1.68975700E+01
  5.79963530E+00  1.55396160E+01  3.59993360E+00  1.01376180E+00  2.70005800E-01
  8.45000000E-02  8.00000000E-01  3.04752490E+03  4.57369510E+02  1.03948690E+02
  2.92101550E+01  9.28666300E+00  3.16392700E+00  7.86827240E+00  1.88128850E+00
  5.44249300E-01  1.68714400E-01  4.38000000E-02  8.00000000E-01  1.87311370E+01
  2.82539370E+00  6.40121700E-01  1.61277800E-01  3.04752490E+03  4.57369510E+02
  1.03948690E+02  2.92101550E+01  9.28666300E+00  3.16392700E+00  7.86827240E+00
  1.88128850E+00  5.44249300E-01  1.68714400E-01  4.38000000E-02  8.00000000E-01
  1.87311370E+01  2.82539370E+00  6.40121700E-01  1.61277800E-01  1.87311370E+01
  2.82539370E+00  6.40121700E-01  1.61277800E-01  3.04752490E+03  4.57369510E+02
  1.03948690E+02  2.92101550E+01  9.28666300E+00  3.16392700E+00  7.86827240E+00
  1.88128850E+00  5.44249300E-01  1.68714400E-01  4.38000000E-02  8.00000000E-01
  1.87311370E+01  2.82539370E+00  6.40121700E-01  1.61277800E-01  1.87311370E+01
  2.82539370E+00  6.40121700E-01  1.61277800E-01  3.04752490E+03  4.57369510E+02
  1.03948690E+02  2.92101550E+01  9.28666300E+00  3.16392700E+00  7.86827240E+00
  1.88128850E+00  5.44249300E-01  1.68714400E-01  4.38000000E-02  8.00000000E-01
  1.87311370E+01  2.82539370E+00  6.40121700E-01  1.61277800E-01  3.04752490E+03
  4.57369510E+02  1.03948690E+02  2.92101550E+01  9.28666300E+00  3.16392700E+00
  7.86827240E+00  1.88128850E+00  5.44249300E-01  1.68714400E-01  4.38000000E-02
  8.00000000E-01  1.87311370E+01  2.82539370E+00  6.40121700E-01  1.61277800E-01
  1.87311370E+01  2.82539370E+00  6.40121700E-01  1.61277800E-01
Contraction coefficients                   R   N=         104
  1.83109981E-03  1.39500985E-02  6.84450927E-02  2.32714275E-01  4.70192950E-01
  3.58520862E-01 -1.10777504E-01 -1.48026305E-01  1.13076704E+00  1.00000000E+00
  1.00000000E+00  1.00000000E+00  1.83470016E-03  1.40373012E-02  6.88426061E-02
  2.32184421E-01  4.67941342E-01  3.62312032E-01 -1.19332409E-01 -1.60854212E-01
  1.14345648E+00  1.00000000E+00  1.00000000E+00  1.00000000E+00  3.34945995E-02
  2.34726947E-01  8.13757318E-01  1.00000000E+00  1.83470016E-03  1.40373012E-02
  6.88426061E-02  2.32184421E-01  4.67941342E-01  3.62312032E-01 -1.19332409E-01
 -1.60854212E-01  1.14345648E+00  1.00000000E+00  1.00000000E+00  1.00000000E+00
  3.34945995E-02  2.34726947E-01  8.13757318E-01  1.00000000E+00  3.34945995E-02
  2.34726947E-01  8.13757318E-01  1.00000000E+00  1.83470016E-03  1.40373012E-02
  6.88426061E-02  2.32184421E-01  4.67941342E-01  3.62312032E-01 -1.19332409E-01
 -1.60854212E-01  1.14345648E+00  1.00000000E+00  1.00000000E+00  1.00000000E+00
  3.34945995E-02  2.34726947E-01  8.13757318E-01  1.00000000E+00  3.34945995E-02
  2.34726947E-01  8.13757318E-01  1.00000000E+00  1.83470016E-03  1.40373012E-02
  6.88426061E-02  2.32184421E-01  4.67941342E-01  3.62312032E-01 -1.19332409E-01
 -1.60854212E-01  1.14345648E+00  1.00000000E+00  1.00000000E+00  1.00000000E+00
  3.34945995E-02  2.34726947E-01  8.13757318E-01  1.00000000E+00  1.83470016E-03
  1.40373012E-02  6.88426061E-02  2.32184421E-01  4.67941342E-01  3.62312032E-01
 -1.19332409E-01 -1.60854212E-01  1.14345648E+00  1.00000000E+00  1.00000000E+00
  1.00000000E+00  3.34945995E-02  2.34726947E-01  8.13757318E-01  1.00000000E+00
  3.34945995E-02  2.34726947E-01  8.13757318E-01  1.00000000E+00
P(S=P) Contraction coefficients            R   N=         104
  0.00000000E+00  0.00000000E+00  0.00000000E+00  0.00000000E+00  0.00000000E+00
  0.00000000E+00  7.08742995E-02  3.39752798E-01  7.27158595E-01  1.00000000E+00
  1.00000000E+00  0.00000000E+00  0.00000000E+00  0.00000000E+00  0.00000000E+00
  0.00000000E+00  0.00000000E+00  0.00000000E+00  6.89990956E-02  3.16423980E-01
  7.44308252E-01  1.00000000E+00  1.00000000E+00  0.00000000E+00  0.00000000E+00
  0.00000000E+00  0.00000000E+00  0.00000000E+00  0.00000000E+00  0.00000000E+00
  0.00000000E+00  0.00000000E+00  0.00000000E+00  0.00000000E+00  6.89990956E-02
  3.16423980E-01  7.44308252E-01  1.00000000E+00  1.00000000E+00  0.00000000E+00
  0.00000000E+00  0.00000000E+00  0.00000000E+00  0.00000000E+00  0.00000000E+00
  0.00000000E+00  0.00000000E+00  0.00000000E+00  0.00000000E+00  0.00000000E+00
  0.00000000E+00  0.00000000E+00  0.00000000E+00  0.00000000E+00  6.89990956E-02
  3.16423980E-01  7.44308252E-01  1.00000000E+00  1.00000000E+00  0.00000000E+00
  0.00000000E+00  0.00000000E+00  0.00000000E+00  0.00000000E+00  0.00000000E+00
  0.00000000E+00  0.00000000E+00  0.00000000E+00  0.00000000E+00  0.00000000E+00
  0.00000000E+00  0.00000000E+00  0.00000000E+00  0.00000000E+00  6.89990956E-02
  3.16423980E-01  7.44308252E-01  1.00000000E+00  1.00000000E+00  0.00000000E+00
  0.00000000E+00  0.00000000E+00  0.00000000E+00  0.00000000E+00  0.00000000E+00
  0.00000000E+00  0.00000000E+00  0.00000000E+00  0.00000000E+00  0.00000000E+00
  6.89990956E-02  3.16423980E-01  7.44308252E-01  1.00000000E+00  1.00000000E+00
  0.00000000E+00  0.00000000E+00  0.00000000E+00  0.00000000E+00  0.00000000E+00
  0.00000000E+00  0.00000000E+00  0.00000000E+00  0.00000000E+00
Coordinates of each shell                  R   N=         138
  3.29359664E+00 -2.86092157E+00 -7.89807723E-02  3.29359664E+00 -2.86092157E+00
 -7.89807723E-02  3.29359664E+00 -2.86092157E+00 -7.89807723E-02  3.29359664E+00
 -2.86092157E+00 -7.89807723E-02  3.29359664E+00 -2.86092157E+00 -7.89807723E-02
  2.39010677E+00 -9.48083777E-01  7.82936471E-01  2.39010677E+00 -9.48083777E-01
  7.82936471E-01  2.39010677E+00 -9.48083777E-01  7.82936471E-01  2.39010677E+00
 -9.48083777E-01  7.82936471E-01  2.39010677E+00 -9.48083777E-01  7.82936471E-01
  2.20403187E+00 -7.13764434E-01  2.86308726E+00  2.20403187E+00 -7.13764434E-01
  2.86308726E+00  1.50420431E+00  1.27332947E+00 -7.75658126E-01  1.50420431E+00
  1.27332947E+00 -7.75658126E-01  1.50420431E+00  1.27332947E+00 -7.75658126E-01
  1.50420431E+00  1.27332947E+00 -7.75658126E-01  1.50420431E+00  1.27332947E+00
 -7.75658126E-01  1.19714757E+00  6.52841924E-01 -2.72530189E+00  1.19714757E+00
  6.52841924E-01 -2.72530189E+00  3.07927173E+00  2.62856044E+00 -8.09719525E-01
  3.07927173E+00  2.62856044E+00 -8.09719525E-01 -3.51235538E+00 -1.28039493E+00
 -5.98591927E-01 -3.51235538E+00 -1.28039493E+00 -5.98591927E-01 -3.51235538E+00
 -1.28039493E+00 -5.98591927E-01 -3.51235538E+00 -1.28039493E+00 -5.98591927E-01
 -3.51235538E+00 -1.28039493E+00 -5.98591927E-01 -5.32774856E+00 -2.23118812E+00
 -4.84552431E-01 -5.32774856E+00 -2.23118812E+00 -4.84552431E-01 -1.99826637E+00
 -2.31509578E+00 -1.52429221E+00 -1.99826637E+00 -2.31509578E+00 -1.52429221E+00
 -3.20584971E+00  1.02902474E+00  3.61993776E-01 -3.20584971E+00  1.02902474E+00
  3.61993776E-01 -3.20584971E+00  1.02902474E+00  3.61993776E-01 -3.20584971E+00
  1.02902474E+00  3.61993776E-01 -3.20584971E+00  1.02902474E+00  3.61993776E-01
 -4.81898093E+00  1.94334762E+00  1.26015656E+00 -4.81898093E+00  1.94334762E+00
  1.26015656E+00 -8.18125697E-01  2.57821846E+00  3.46706602E-01 -8.18125697E-01
  2.57821846E+00  3.46706602E-01 -8.18125697E-01  2.57821846E+00  3.46706602E-01
 -8.18125697E-01  2.57821846E+00  3.46706602E-01 -8.18125697E-01  2.57821846E+00
  3.46706602E-01 -1.17361947E+00  4.34153052E+00 -6.86659776E-01 -1.17361947E+00
  4.34153052E+00 -6.86659776E-01 -4.00228505E-01  3.16581136E+00  2.29684704E+00
 -4.00228505E-01  3.16581136E+00  2.29684704E+00
Overlap Matrix                             R   N=        8515
  1.00000000E+00  2.33689906E-01  1.00000000E+00 -1.84109338E-16 -1.01225809E-15
  1.00000000E+00  2.11518214E-16 -1.10974562E-16 -3.92670374E-31  1.00000000E+00
  4.93320343E-18  0.00000000E+00  0.00000000E+00  0.00000000E+00  1.00000000E+00
  1.67279760E-01  7.63640773E-01 -2.40965892E-16  2.08233183E-16  0.00000000E+00
  1.00000000E+00  2.05288406E-17  3.15903933E-17  5.01520641E-01 -9.61029462E-32
  0.00000000E+00  0.00000000E+00  1.00000000E+00  4.95624132E-17 -2.48464929E-17
 -9.61029462E-32  5.01520641E-01  0.00000000E+00  0.00000000E+00  0.00000000E+00
  1.00000000E+00  1.81075130E-19  0.00000000E+00  0.00000000E+00  0.00000000E+00
  5.01520641E-01  0.00000000E+00  0.00000000E+00  0.00000000E+00  1.00000000E+00
  7.23158236E-02  4.09528899E-01  0.00000000E+00  0.00000000E+00 -2.93097974E-18
  7.86651414E-01 -3.63052215E-16  0.00000000E+00  0.00000000E+00  1.00000000E+00
  6.25493751E-18  0.00000000E+00  1.68056960E-01  0.00000000E+00  0.00000000E+00
 -2.03100456E-16  6.70353497E-01  0.00000000E+00  0.00000000E+00  2.58183552E-16
  1.00000000E+00  9.38005527E-18  0.00000000E+00  0.00000000E+00  1.68056960E-01
  0.00000000E+00  0.00000000E+00  0.00000000E+00  6.70353497E-01  0.00000000E+00
  0.00000000E+00  0.00000000E+00  1.00000000E+00 -4.22923676E-20  1.95645464E-19
  0.00000000E+00  0.00000000E+00  1.68056960E-01  0.00000000E+00  0.00000000E+00
  0.00000000E+00  6.70353497E-01  0.00000000E+00  0.00000000E+00  0.00000000E+00
  1.00000000E+00  3.35315380E-02  5.47065748E-01  0.00000000E+00 -8.54174930E-17
 -1.29109600E-17  6.99014733E-01  0.00000000E+00  0.00000000E+00  1.00814527E-17
  4.70781922E-01  0.00000000E+00  0.00000000E+00  0.00000000E+00  1.00000000E+00
  3.35315380E-02  5.47065748E-01  0.00000000E+00 -2.56252479E-16 -1.29109600E-17
  6.99014733E-01  0.00000000E+00  0.00000000E+00  1.00814527E-17  4.70781922E-01
  0.00000000E+00  0.00000000E+00  0.00000000E+00  3.33333333E-01  1.00000000E+00
  3.35315380E-02  5.47065748E-01  0.00000000E+00 -8.54174930E-17 -3.87328800E-17
  6.99014733E-01  0.00000000E+00  0.00000000E+00  3.02443580E-17  4.70781922E-01
  0.00000000E+00  0.00000000E+00  0.00000000E+00  3.33333333E-01  3.33333333E-01
  1.00000000E+00 -2.73209471E-34  0.00000000E+00 -1.47947438E-16  0.00000000E+00
  0.00000000E+00  0.00000000E+00  0.00000000E+00  0.00000000E+00  0.00000000E+00
  0.00000000E+00  0.00000000E+00  0.00000000E+00  0.00000000E+00  0.00000000E+00
  0.00000000E+00  0.00000000E+00  1.00000000E+00  0.00000000E+00  0.00000000E+00
 -2.23624387E-17  0.00000000E+00  0.00000000E+00  0.00000000E+00  1.74615882E-17
  0.00000000E+00  0.00000000E+00  0.00000000E+00  0.00000000E+00  0.00000000E+00
  0.00000000E+00 -3.41586792E-32 -1.13862264E-32 -3.41586792E-32  0.00000000E+00
  1.00000000E+00  2.48357210E-33 -2.59725178E-33  0.00000000E+00 -2.23624387E-17
 -1.47947438E-16  0.00000000E+00  0.00000000E+00  1.74615882E-17  0.00000000E+00
  0.00000000E+00  0.00000000E+00  0.00000000E+00  0.00000000E+00  0.00000000E+00
  0.00000000E+00  0.00000000E+00 -1.97215226E-32  0.00000000E+00  1.00000000E+00
  2.88847090E-06  8.35610077E-03 -7.88438176E-03  1.66925430E-02  7.52159472E-03
  6.71413449E-02 -5.95126480E-02  1.25998140E-01  5.67742700E-02  7.31046322E-02
 -3.76949287E-02  7.98064120E-02  3.59604577E-02  1.77603009E-02  7.07040331E-02
  1.63933820E-02 -5.57509834E-02 -2.51211755E-02  5.31856923E-02  1.00000000E+00
  2.14273757E-02  1.73904169E-01 -8.11481508E-02  1.71804085E-01  7.74142502E-02
  3.75536588E-01 -2.28951169E-01  4.84727574E-01  2.18416352E-01  4.05410249E-01
 -1.82556132E-01  3.86501590E-01  1.74156107E-01  1.81961917E-01  3.34021041E-01
  1.78036004E-01 -1.60121800E-01 -7.21502579E-02  1.52754055E-01  2.19058872E-01
  1.00000000E+00  1.75929994E-02  1.09001780E-01  3.30924197E-02  1.22388753E-01
  5.51478943E-02  1.33344312E-01  1.97169641E-01  1.83898400E-01  8.28639011E-02
  5.72257401E-02  1.91583353E-01  5.56981649E-02  2.50973757E-02 -6.14401135E-03
  2.32280121E-01  1.08231550E-01  8.80958976E-02  3.96956675E-02  1.21479102E-01
 -2.56300700E-17  2.44085565E-17  1.00000000E+00 -3.72472958E-02 -2.30774834E-01
  1.22388753E-01 -1.68217028E-01 -1.16757233E-01 -2.82312011E-01  1.83898400E-01
 -1.05313099E-01 -1.75436613E-01 -1.21156377E-01  5.56981649E-02  9.99689970E-02
 -5.31353041E-02 -2.35754175E-01 -2.43013451E-01 -2.29144130E-01  1.67840460E-01
  1.21479102E-01 -1.60117553E-01  5.23827834E-17  6.80820066E-18 -2.18526724E-32
  1.00000000E+00 -1.67834861E-02 -1.03986239E-01  5.51478943E-02 -1.16757233E-01
  3.82898942E-02 -1.27208690E-01  8.28639011E-02 -1.75436613E-01  2.04979242E-01
 -5.45925904E-02  2.50973757E-02 -5.31353041E-02  1.93948683E-01 -1.06229911E-01
 -2.21592128E-01  8.83976481E-03  1.21479102E-01 -4.70179674E-02  9.95448302E-02
  2.67940464E-17 -9.39921902E-18  4.50837373E-32 -5.46316810E-33  1.00000000E+00
  5.04905328E-02  2.89675126E-01 -5.81095117E-02  1.23027468E-01  5.54356967E-02
  5.58275788E-01 -2.01582646E-01  4.26783874E-01  1.92307147E-01  6.82696717E-01
 -2.38931385E-01  5.05857346E-01  2.27937345E-01  3.19075654E-01  3.69939212E-01
  3.17762442E-01 -5.35605113E-02 -2.41341573E-02  5.10960112E-02  1.84261053E-01
  8.12273068E-01 -2.63913784E-17 -5.62843133E-17  1.34823474E-16  1.00000000E+00
  3.67286857E-02  1.82665878E-01  1.19152628E-01  7.92487860E-02  3.57091936E-02
  2.55013759E-01  4.51111958E-01  1.94949812E-01  8.78436241E-02  1.69092942E-01
  5.84654458E-01  1.25292688E-01  5.64563961E-02  1.16861336E-01  2.26753477E-01
  1.94771833E-01  1.11496454E-01  5.02398667E-02  3.13191947E-02 -2.32569778E-17
  6.68364638E-18  5.69754058E-01  0.00000000E+00  0.00000000E+00  0.00000000E+00
  1.00000000E+00 -7.77607154E-02 -3.86733940E-01  7.92487860E-02 -1.11986416E-02
 -7.56022816E-02 -5.39906396E-01  1.94949812E-01  1.30451456E-01 -1.85979512E-01
 -3.57997785E-01  1.25292688E-01  3.78568513E-01 -1.19527548E-01 -4.14068426E-01
 -3.13421087E-01 -4.12364255E-01  1.33657811E-03  3.13191947E-02 -1.27507763E-03
  1.33622571E-19 -8.77102006E-17  0.00000000E+00  5.69754058E-01 -5.13338306E-33
  0.00000000E+00  0.00000000E+00  1.00000000E+00 -3.50386748E-02 -1.74260803E-01
  3.57091936E-02 -7.56022816E-02  1.22518081E-01 -2.43279714E-01  8.78436241E-02
 -1.85979512E-01  4.59390878E-01 -1.61312404E-01  5.64563961E-02 -1.19527548E-01
  5.89975254E-01 -1.86577616E-01 -2.16319783E-01 -1.10716258E-01  3.13191947E-02
 -5.40572536E-02  1.14448166E-01  9.32941646E-21  7.57538765E-17  0.00000000E+00
 -5.13338306E-33  5.69754058E-01  0.00000000E+00  0.00000000E+00  0.00000000E+00
  1.00000000E+00  3.54518191E-02  2.13433793E-01 -1.22473835E-02  2.59297409E-02
  1.16838400E-02  4.74005412E-01 -6.21206902E-02  1.31519798E-01  5.92623073E-02
  7.94473117E-01 -1.42465037E-01  3.01622097E-01  1.35909739E-01  2.61474898E-01
  2.64842213E-01  2.61387960E-01 -3.54586113E-03 -1.59775118E-03  3.38270408E-03
  6.97718343E-02  4.02090587E-01  1.12974096E-16 -2.82435241E-17  4.39382376E-17
  7.27666104E-01  0.00000000E+00  0.00000000E+00  0.00000000E+00  1.00000000E+00
  1.33362102E-02  7.71940143E-02  6.03183446E-02  9.42775929E-03  4.24811153E-03
  1.54236004E-01  3.08317309E-01  4.27950556E-02  1.92832850E-02  1.97878949E-01
  7.17955072E-01  7.51248372E-02  3.38509583E-02  8.35222475E-02  9.49572242E-02
  9.37187271E-02  1.74812530E-02  7.87698435E-03  1.21284362E-03  4.39662309E-18
  8.70164298E-17  1.64678564E-01 -1.19979945E-32  9.08063018E-33  0.00000000E+00
  5.88690339E-01  0.00000000E+00  0.00000000E+00  0.00000000E+00  1.00000000E+00
 -2.82349673E-02 -1.63432523E-01  9.42775929E-03  4.48112251E-02 -8.99395623E-03
 -3.26543184E-01  4.27950556E-02  2.37926453E-01 -4.08259105E-02 -4.18942533E-01
  7.51248372E-02  5.94387022E-01 -7.16680896E-02 -1.98484074E-01 -1.79386551E-01
 -1.98418079E-01 -6.16576287E-03  1.21284362E-03  5.88205528E-03 -5.73350062E-18
 -2.17541075E-17 -1.19979945E-32  1.64678564E-01 -2.27015754E-33  0.00000000E+00
  0.00000000E+00  5.88690339E-01  0.00000000E+00  0.00000000E+00  0.00000000E+00
  1.00000000E+00 -1.27225661E-02 -7.36420568E-02  4.24811153E-03 -8.99395623E-03
  6.07187126E-02 -1.47139084E-01  1.92832850E-02 -4.08259105E-02  3.10134684E-01
 -1.88773870E-01  3.38509583E-02 -7.16680896E-02  7.21145393E-01 -8.94361486E-02
 -9.05879215E-02 -7.96493698E-02  1.21284362E-03 -8.31090282E-03  1.75955588E-02
  3.01203630E-18  2.05367285E-17  9.08063018E-33 -2.27015754E-33  1.64678564E-01
  0.00000000E+00  0.00000000E+00  0.00000000E+00  5.88690339E-01  0.00000000E+00
  0.00000000E+00  0.00000000E+00  1.00000000E+00  1.03851796E-02  1.01534131E-01
  2.06408767E-02  1.28813597E-01  5.80429039E-02  2.70898311E-01 -7.46533654E-02
  4.02628803E-01  1.81422967E-01  3.20114656E-01 -1.20373009E-01  3.21983934E-01
  1.45084704E-01  8.76615168E-02  2.68382926E-01  1.08956266E-01  3.43504051E-02
  1.54781584E-02  1.56124390E-01  7.91027073E-02  7.10235064E-01  1.30256362E-15
 -8.15009555E-17  7.94838745E-17  6.29936196E-01  0.00000000E+00  0.00000000E+00
  0.00000000E+00  3.23540475E-01  0.00000000E+00  0.00000000E+00  0.00000000E+00
  1.00000000E+00  4.37455694E-02  2.65175217E-01 -1.69925142E-01  1.87245937E-01
  1.62106312E-01  3.65329400E-01 -2.56465119E-01  2.98403911E-01  2.44664292E-01
  3.34615354E-01 -1.58971638E-01  2.69434984E-01  1.51656816E-01  2.68382926E-01
  2.36227296E-01  2.58850245E-01 -1.90793631E-01 -1.75191191E-01  1.82014571E-01
  7.91027073E-02  7.10235064E-01  4.34187872E-16 -2.44502866E-16  7.94838745E-17
  6.29936196E-01  0.00000000E+00  0.00000000E+00  0.00000000E+00  3.23540475E-01
  0.00000000E+00  0.00000000E+00  0.00000000E+00  3.33333333E-01  1.00000000E+00
  9.52386994E-03  9.73091905E-02 -5.80261389E-02  1.22850954E-01 -2.23778640E-02
  2.68460258E-01 -1.88461952E-01  3.99005190E-01  6.95855261E-02  3.19740272E-01
 -1.51904670E-01  3.21607364E-01  1.14664559E-01  1.08956266E-01  2.58850245E-01
  8.94884644E-02 -1.57841852E-01  1.80974032E-02 -3.83152021E-02  7.91027073E-02
  7.10235064E-01  4.34187872E-16 -8.15009555E-17  2.38451624E-16  6.29936196E-01
  0.00000000E+00  0.00000000E+00  0.00000000E+00  3.23540475E-01  0.00000000E+00
  0.00000000E+00  0.00000000E+00  3.33333333E-01  3.33333333E-01  1.00000000E+00
 -3.51292676E-02 -1.72317876E-01 -3.45347004E-02 -1.72624967E-01 -1.09581193E-01
 -9.94381367E-02 -1.42001755E-01 -4.77488381E-02 -6.65945893E-02 -1.52695728E-02
 -5.08856431E-02  1.21025174E-02 -6.92058735E-03  3.43504051E-02 -1.90793631E-01
 -1.57841852E-01 -8.29313175E-02 -5.67590052E-02 -1.48905907E-01 -4.13246510E-32
 -1.75485499E-31 -1.41163796E-16  7.52035455E-16 -1.87117150E-47  0.00000000E+00
  0.00000000E+00  0.00000000E+00  0.00000000E+00  0.00000000E+00  0.00000000E+00
  0.00000000E+00  0.00000000E+00  0.00000000E+00  0.00000000E+00  0.00000000E+00
  1.00000000E+00 -1.58291108E-02 -7.76457624E-02 -1.55612012E-02 -1.09581193E-01
  2.11897918E-02 -4.48064362E-02 -6.39854366E-02 -6.65945893E-02  7.00361020E-02
 -6.88040987E-03 -2.29288721E-02 -6.92058735E-03  2.43428657E-02  1.54781584E-02
 -1.75191191E-01  1.80974032E-02 -5.67590052E-02  1.74575594E-02  6.95647877E-02
  8.23286833E-32  1.67193447E-31  1.37670109E-16 -1.87117150E-47  7.52035455E-16
  0.00000000E+00  0.00000000E+00  0.00000000E+00  0.00000000E+00  0.00000000E+00
  0.00000000E+00  0.00000000E+00  0.00000000E+00  0.00000000E+00  0.00000000E+00
  0.00000000E+00  0.00000000E+00  1.00000000E+00  3.35128513E-02  1.64388949E-01
 -1.09581193E-01  1.64681909E-01 -4.48623015E-02  9.48626520E-02 -6.65945893E-02
  4.55517527E-02 -1.48278036E-01  1.45669681E-02 -6.92058735E-03 -1.15456397E-02
 -5.15378815E-02  1.56124390E-01  1.82014571E-01 -3.83152021E-02 -1.48905907E-01
  6.95647877E-02 -9.69651198E-02 -2.05825928E-32 -4.38713747E-32 -1.87117150E-47
  1.37670109E-16 -1.41163796E-16  0.00000000E+00  0.00000000E+00  0.00000000E+00
  0.00000000E+00  0.00000000E+00  0.00000000E+00  0.00000000E+00  0.00000000E+00
  0.00000000E+00  0.00000000E+00  0.00000000E+00  0.00000000E+00  0.00000000E+00
  1.00000000E+00  4.66069342E-05  3.02065091E-03 -1.71012352E-03  3.37006485E-03
  4.61771515E-03  4.85730937E-02 -3.93795937E-02  7.76036250E-02  1.06333691E-01
  1.56727033E-01 -8.85100478E-02  1.74422840E-01  2.38996882E-01  5.11311528E-03
  1.11011194E-02  1.81777824E-02 -7.08819906E-03 -9.71236036E-03  1.91397193E-02
  2.96808045E-02  2.59976598E-01 -3.14641766E-02  3.96220288E-02  3.51741318E-01
  3.68221620E-01 -4.54323889E-02  5.72118394E-02  5.07893423E-01  2.57035381E-01
 -1.88306448E-02  2.37129469E-02  2.10509746E-01  1.13002080E-01  1.14509963E-01
  4.32129471E-01 -5.61461675E-03 -4.98433008E-02  6.27663874E-02  1.00000000E+00
  1.17713900E-02  8.13148699E-02 -1.84596484E-02  3.63776133E-02  4.98451703E-02
  2.21227616E-01 -9.36743268E-02  1.84599856E-01  2.52941588E-01  4.15439935E-01
 -1.72683794E-01  3.40300322E-01  4.66284782E-01  9.49584146E-02  1.11487392E-01
  1.31021446E-01 -1.95658982E-02 -2.68094973E-02  5.28322916E-02  8.97401515E-02
  4.66147330E-01 -2.34822424E-02  2.95705842E-02  2.62510442E-01  6.94506841E-01
 -5.18849399E-02  6.53373710E-02  5.80027165E-01  6.37359520E-01 -3.90386932E-02
  4.91604228E-02  4.36417631E-01  3.43834052E-01  3.44210730E-01  4.23553943E-01
 -1.40256415E-03 -1.24511484E-02  1.56794112E-02  6.58292049E-01  1.00000000E+00
  4.07469507E-20  3.98042130E-08 -7.03542450E-08  1.62547981E-07 -2.73915386E-08
  1.27994854E-03 -2.23977280E-03  5.17481989E-03 -8.72027312E-04  2.01091385E-02
 -2.05336099E-02  4.74412998E-02 -7.99450224E-03  2.04063352E-06  1.04205860E-05
  4.01719516E-07 -7.73034746E-06  1.30266836E-06 -3.00971336E-06  3.32124928E-07
  8.64096805E-03 -6.54109099E-03  1.64018802E-02 -1.15079362E-02  4.89435490E-02
 -3.43391844E-02  8.61060013E-02 -6.04139499E-02  4.89968213E-02 -1.79934479E-02
  4.51188307E-02 -3.16564088E-02  2.38137716E-03  1.29725520E-02  6.57816704E-03
 -8.69935903E-03  6.10367027E-03 -1.53050414E-02  1.94074966E-05  1.13805637E-02
  1.00000000E+00  7.84917549E-06  7.61211050E-04 -6.31107369E-04  1.45812422E-03
 -2.45713700E-04  2.38126686E-02 -2.92897583E-02  6.76716960E-02 -1.14035983E-02
  1.31224777E-01 -1.17180682E-01  2.70736800E-01 -4.56228216E-02  2.19657803E-03
  7.76794453E-03  1.10695483E-03 -5.13948011E-03  8.66072080E-04 -2.00099181E-03
  8.64096805E-03  1.31899405E-01 -6.19379875E-02  1.55310399E-01 -1.08969346E-01
  2.90427724E-01 -1.58513557E-01  3.97475034E-01 -2.78877621E-01  2.89440805E-01
 -9.88569132E-02  2.47885139E-01 -1.73921912E-01  7.17363490E-02  1.65178327E-01
  1.08763058E-01 -7.67511937E-02  5.38504018E-02 -1.35030661E-01  5.13641515E-03
  9.18756006E-02  2.19058872E-01  1.00000000E+00  1.25606405E-05  8.49904810E-04
 -3.99444959E-04  1.64274496E-03 -2.76824798E-04  1.48000389E-02 -2.78881411E-03
  4.32191269E-02 -7.28300886E-03  3.58810276E-02  3.63492394E-02  7.53936667E-02
 -1.27048550E-02  9.86325334E-04  8.02054351E-03  1.13589522E-03 -2.75936310E-03
  4.64990094E-04 -2.06817987E-03  6.54109099E-03  6.19379875E-02  3.78297069E-02
  8.12937880E-02 -5.70375904E-02  7.07630824E-02  1.54288683E-01  1.00746408E-01
 -7.06859955E-02  2.19038284E-02  1.10582299E-01  1.89511100E-02 -1.32965344E-02
 -1.60202979E-03  9.80399881E-02  6.26591580E-02  4.09865430E-02 -2.87571008E-02
 -8.46844655E-02  1.90754699E-03  1.64154354E-02  1.00329246E-17  9.34488791E-17
  1.00000000E+00 -2.90203774E-05 -1.96363860E-03  1.64274496E-03 -3.48386353E-03
  6.39582046E-04 -3.41943325E-02  4.32191269E-02 -8.39370637E-02  1.68268224E-02
 -8.29003081E-02  7.53936667E-02 -1.05209939E-01  2.93535739E-02 -5.22641694E-03
 -1.55832491E-02 -2.62439707E-03  1.11682193E-02 -2.06817987E-03  4.34820543E-03
 -1.64018802E-02 -1.55310399E-01  8.12937880E-02 -1.33595574E-01  1.43022582E-01
 -1.77439452E-01  1.00746408E-01 -5.81565928E-02  1.77246155E-01 -5.49241663E-02
  1.89511100E-02  7.06198435E-02  3.33412523E-02 -9.88910074E-02 -1.42928567E-01
 -1.57118744E-01  8.51563748E-02 -8.46844655E-02  1.49818146E-01 -5.41629851E-03
 -4.66100697E-02 -7.76121350E-17  1.07065280E-16  1.08785721E-31  1.00000000E+00
  4.89032706E-06  3.30899727E-04 -2.76824798E-04  6.39582046E-04  2.03791972E-04
  5.76220864E-03 -7.28300886E-03  1.68268224E-02  1.30818013E-02  1.39698259E-02
 -1.27048550E-02  2.93535739E-02  6.40347567E-02  8.80722115E-04  3.12269754E-03
 -5.44622894E-05 -2.06817987E-03 -7.56341346E-04  1.74746753E-03  1.15079362E-02
  1.08969346E-01 -5.70375904E-02  1.43022582E-01 -3.00981571E-02  1.24495598E-01
 -7.06859955E-02  1.77246155E-01  7.01065035E-02  3.85360577E-02 -1.32965344E-02
  3.33412523E-02  9.47470368E-02  6.93842041E-02  1.72484671E-01  3.80354201E-02
 -8.46844655E-02  2.38749793E-02 -5.98668558E-02  9.91826870E-03  8.53518679E-02
  1.71318461E-18  9.78196445E-17 -6.16253689E-32 -5.43928604E-32  1.00000000E+00
  3.85356955E-03  3.10461401E-02 -1.18245994E-02  2.73198121E-02 -4.60375875E-03
  1.10950223E-01 -7.93441323E-02  1.83318412E-01 -3.08916380E-02  2.84272242E-01
 -1.97043507E-01  4.55253613E-01 -7.67164063E-02  4.13817046E-02  6.98115194E-02
  3.58215273E-02 -2.62259659E-02  4.41943082E-03 -1.02107493E-02  4.89435490E-02
  2.90427724E-01 -7.07630824E-02  1.77439452E-01 -1.24495598E-01  5.02880376E-01
 -1.82989713E-01  4.58849350E-01 -3.21939252E-01  5.48117531E-01 -1.61357978E-01
  4.04607463E-01 -2.83881897E-01  2.11736683E-01  2.61097801E-01  2.31296198E-01
 -4.05441416E-02  2.84467018E-02 -7.13305159E-02  6.08018326E-02  2.32676954E-01
  1.84261053E-01  8.12273068E-01  7.85391605E-17  1.91107787E-16  0.00000000E+00
  1.00000000E+00  5.55043953E-03  3.88640137E-02  1.04124753E-03  3.47645785E-02
 -5.85830282E-03  1.00374937E-01  3.61712156E-02  1.65845310E-01 -2.79471832E-02
  1.39448680E-01  1.71430966E-01  2.23322949E-01 -3.76329448E-02  3.24027625E-02
  8.47486845E-02  4.34860513E-02  3.84467044E-03 -6.47879095E-04 -1.23954840E-02
  3.43391844E-02  1.58513557E-01  1.54288683E-01  1.00746408E-01 -7.06859955E-02
  1.82989713E-01  4.36293496E-01  1.66967563E-01 -1.17148280E-01  8.22150685E-02
  4.19230513E-01  6.06892288E-02 -4.25809580E-02  7.59483649E-02  1.56924022E-01
  1.39012774E-01  8.70530737E-02 -6.10784377E-02 -4.28707992E-02  2.80659797E-02
  6.53764601E-02 -2.86511444E-19 -1.19563241E-17  5.69754058E-01  0.00000000E+00
  0.00000000E+00  0.00000000E+00  1.00000000E+00 -1.28238564E-02 -8.97922642E-02
  3.47645785E-02 -6.42327385E-02  1.35351505E-02 -2.31908442E-01  1.65845310E-01
 -2.75220002E-01  6.45697812E-02 -3.22185269E-01  2.23322949E-01 -2.47880291E-01