Jobname.Temp
SP        R                             6-31+G(d)           
Number of atoms                            I               14
Charge                                     I                0
Multiplicity                               I                1
Number of electrons                        I               46
Number of alpha electrons                  I               23
Number of beta electrons                   I               23
Atomic numbers                             I   N=          14
           8           6           1           6           1           1
           6           1           1           6           1           6
           1           1
Current cartesian coordinates              R   N=          42
  7.44017424E-01 -2.48530898E+00  3.74152498E-01  2.98055491E+00 -1.24128345E+00
  3.53367174E-01  4.42230167E+00 -2.42025404E+00  1.21519536E+00  3.50360916E+00
  1.05163684E+00 -5.61282474E-01  2.10392675E+00  2.30132176E+00 -1.37963062E+00
  5.43148067E+00  1.73379930E+00 -4.42688747E-01 -1.37909201E+00 -1.30356726E+00
 -7.66557115E-01 -2.75873071E+00 -2.83154413E+00 -9.62774128E-01 -8.87395697E-01
 -6.27105056E-01 -2.66761485E+00 -2.47992220E+00  7.82754271E-01  8.19404303E-01
 -2.62316941E+00  3.78850179E-01  2.83258874E+00 -3.33775741E+00  2.95681149E+00
 -1.10269895E-01 -3.19593754E+00  3.40336503E+00 -2.11387996E+00 -4.21489744E+00
  4.36896396E+00  1.09301908E+00
Nuclear charges                            R   N=          14
  8.00000000E+00  6.00000000E+00  1.00000000E+00  6.00000000E+00  1.00000000E+00
  1.00000000E+00  6.00000000E+00  1.00000000E+00  1.00000000E+00  6.00000000E+00
  1.00000000E+00  6.00000000E+00  1.00000000E+00  1.00000000E+00
Number of basis functions                  I              130
Number of contracted shells                I               46
Number of primitive shells                 I              104
Highest angular momentum                   I                2
Largest degree of contraction              I                6
Shell types                                I   N=          46
           0          -1          -1          -1           2           0
          -1          -1          -1           2           0           0
           0          -1          -1          -1           2           0
           0           0           0           0          -1          -1
          -1           2           0           0           0           0
           0          -1          -1          -1           2           0
           0           0          -1          -1          -1           2
           0           0           0           0
Number of primitives per shell             I   N=          46
           6           3           1           1           1           6
           3           1           1           1           3           1
           6           3           1           1           1           3
           1           3           1           6           3           1
           1           1           3           1           3           1
           6           3           1           1           1           3
           1           6           3           1           1           1
           3           1           3           1
Shell to atom map                          I   N=          46
           1           1           1           1           1           2
           2           2           2           2           3           3
           4           4           4           4           4           5
           5           6           6           7           7           7
           7           7           8           8           9           9
          10          10          10          10          10          11
          11          12          12          12          12          12
          13          13          14          14
Primitive exponents                        R   N=         104
  5.48467170E+03  8.25234950E+02  1.88046960E+02  5.29645000E+01  1.68975700E+01
  5.79963530E+00  1.55396160E+01  3.59993360E+00  1.01376180E+00  2.70005800E-01
  8.45000000E-02  8.00000000E-01  3.04752490E+03  4.57369510E+02  1.03948690E+02
  2.92101550E+01  9.28666300E+00  3.16392700E+00  7.86827240E+00  1.88128850E+00
  5.44249300E-01  1.68714400E-01  4.38000000E-02  8.00000000E-01  1.87311370E+01
  2.82539370E+00  6.40121700E-01  1.61277800E-01  3.04752490E+03  4.57369510E+02
  1.03948690E+02  2.92101550E+01  9.28666300E+00  3.16392700E+00  7.86827240E+00
  1.88128850E+00  5.44249300E-01  1.68714400E-01  4.38000000E-02  8.00000000E-01
  1.87311370E+01  2.82539370E+00  6.40121700E-01  1.61277800E-01  1.87311370E+01
  2.82539370E+00  6.40121700E-01  1.61277800E-01  3.04752490E+03  4.57369510E+02
  1.03948690E+02  2.92101550E+01  9.28666300E+00  3.16392700E+00  7.86827240E+00
  1.88128850E+00  5.44249300E-01  1.68714400E-01  4.38000000E-02  8.00000000E-01
  1.87311370E+01  2.82539370E+00  6.40121700E-01  1.61277800E-01  1.87311370E+01
  2.82539370E+00  6.40121700E-01  1.61277800E-01  3.04752490E+03  4.57369510E+02
  1.03948690E+02  2.92101550E+01  9.28666300E+00  3.16392700E+00  7.86827240E+00
  1.88128850E+00  5.44249300E-01  1.68714400E-01  4.38000000E-02  8.00000000E-01
  1.87311370E+01  2.82539370E+00  6.40121700E-01  1.61277800E-01  3.04752490E+03
  4.57369510E+02  1.03948690E+02  2.92101550E+01  9.28666300E+00  3.16392700E+00
  7.86827240E+00  1.88128850E+00  5.44249300E-01  1.68714400E-01  4.38000000E-02
  8.00000000E-01  1.87311370E+01  2.82539370E+00  6.40121700E-01  1.61277800E-01
  1.87311370E+01  2.82539370E+00  6.40121700E-01  1.61277800E-01
Contraction coefficients                   R   N=         104
  1.83109981E-03  1.39500985E-02  6.84450927E-02  2.32714275E-01  4.70192950E-01
  3.58520862E-01 -1.10777504E-01 -1.48026305E-01  1.13076704E+00  1.00000000E+00
  1.00000000E+00  1.00000000E+00  1.83470016E-03  1.40373012E-02  6.88426061E-02
  2.32184421E-01  4.67941342E-01  3.62312032E-01 -1.19332409E-01 -1.60854212E-01
  1.14345648E+00  1.00000000E+00  1.00000000E+00  1.00000000E+00  3.34945995E-02
  2.34726947E-01  8.13757318E-01  1.00000000E+00  1.83470016E-03  1.40373012E-02
  6.88426061E-02  2.32184421E-01  4.67941342E-01  3.62312032E-01 -1.19332409E-01
 -1.60854212E-01  1.14345648E+00  1.00000000E+00  1.00000000E+00  1.00000000E+00
  3.34945995E-02  2.34726947E-01  8.13757318E-01  1.00000000E+00  3.34945995E-02
  2.34726947E-01  8.13757318E-01  1.00000000E+00  1.83470016E-03  1.40373012E-02
  6.88426061E-02  2.32184421E-01  4.67941342E-01  3.62312032E-01 -1.19332409E-01
 -1.60854212E-01  1.14345648E+00  1.00000000E+00  1.00000000E+00  1.00000000E+00
  3.34945995E-02  2.34726947E-01  8.13757318E-01  1.00000000E+00  3.34945995E-02
  2.34726947E-01  8.13757318E-01  1.00000000E+00  1.83470016E-03  1.40373012E-02
  6.88426061E-02  2.32184421E-01  4.67941342E-01  3.62312032E-01 -1.19332409E-01
 -1.60854212E-01  1.14345648E+00  1.00000000E+00  1.00000000E+00  1.00000000E+00
  3.34945995E-02  2.34726947E-01  8.13757318E-01  1.00000000E+00  1.83470016E-03
  1.40373012E-02  6.88426061E-02  2.32184421E-01  4.67941342E-01  3.62312032E-01
 -1.19332409E-01 -1.60854212E-01  1.14345648E+00  1.00000000E+00  1.00000000E+00
  1.00000000E+00  3.34945995E-02  2.34726947E-01  8.13757318E-01  1.00000000E+00
  3.34945995E-02  2.34726947E-01  8.13757318E-01  1.00000000E+00
P(S=P) Contraction coefficients            R   N=         104
  0.00000000E+00  0.00000000E+00  0.00000000E+00  0.00000000E+00  0.00000000E+00
  0.00000000E+00  7.08742995E-02  3.39752798E-01  7.27158595E-01  1.00000000E+00
  1.00000000E+00  0.00000000E+00  0.00000000E+00  0.00000000E+00  0.00000000E+00
  0.00000000E+00  0.00000000E+00  0.00000000E+00  6.89990956E-02  3.16423980E-01
  7.44308252E-01  1.00000000E+00  1.00000000E+00  0.00000000E+00  0.00000000E+00
  0.00000000E+00  0.00000000E+00  0.00000000E+00  0.00000000E+00  0.00000000E+00
  0.00000000E+00  0.00000000E+00  0.00000000E+00  0.00000000E+00  6.89990956E-02
  3.16423980E-01  7.44308252E-01  1.00000000E+00  1.00000000E+00  0.00000000E+00
  0.00000000E+00  0.00000000E+00  0.00000000E+00  0.00000000E+00  0.00000000E+00
  0.00000000E+00  0.00000000E+00  0.00000000E+00  0.00000000E+00  0.00000000E+00
  0.00000000E+00  0.00000000E+00  0.00000000E+00  0.00000000E+00  6.89990956E-02
  3.16423980E-01  7.44308252E-01  1.00000000E+00  1.00000000E+00  0.00000000E+00
  0.00000000E+00  0.00000000E+00  0.00000000E+00  0.00000000E+00  0.00000000E+00
  0.00000000E+00  0.00000000E+00  0.00000000E+00  0.00000000E+00  0.00000000E+00
  0.00000000E+00  0.00000000E+00  0.00000000E+00  0.00000000E+00  6.89990956E-02
  3.16423980E-01  7.44308252E-01  1.00000000E+00  1.00000000E+00  0.00000000E+00
  0.00000000E+00  0.00000000E+00  0.00000000E+00  0.00000000E+00  0.00000000E+00
  0.00000000E+00  0.00000000E+00  0.00000000E+00  0.00000000E+00  0.00000000E+00
  6.89990956E-02  3.16423980E-01  7.44308252E-01  1.00000000E+00  1.00000000E+00
  0.00000000E+00  0.00000000E+00  0.00000000E+00  0.00000000E+00  0.00000000E+00
  0.00000000E+00  0.00000000E+00  0.00000000E+00  0.00000000E+00
Coordinates of each shell                  R   N=         138
  7.44017424E-01 -2.48530898E+00  3.74152498E-01  7.44017424E-01 -2.48530898E+00
  3.74152498E-01  7.44017424E-01 -2.48530898E+00  3.74152498E-01  7.44017424E-01
 -2.48530898E+00  3.74152498E-01  7.44017424E-01 -2.48530898E+00  3.74152498E-01
  2.98055491E+00 -1.24128345E+00  3.53367174E-01  2.98055491E+00 -1.24128345E+00
  3.53367174E-01  2.98055491E+00 -1.24128345E+00  3.53367174E-01  2.98055491E+00
 -1.24128345E+00  3.53367174E-01  2.98055491E+00 -1.24128345E+00  3.53367174E-01
  4.42230167E+00 -2.42025404E+00  1.21519536E+00  4.42230167E+00 -2.42025404E+00
  1.21519536E+00  3.50360916E+00  1.05163684E+00 -5.61282474E-01  3.50360916E+00
  1.05163684E+00 -5.61282474E-01  3.50360916E+00  1.05163684E+00 -5.61282474E-01
  3.50360916E+00  1.05163684E+00 -5.61282474E-01  3.50360916E+00  1.05163684E+00
 -5.61282474E-01  2.10392675E+00  2.30132176E+00 -1.37963062E+00  2.10392675E+00
  2.30132176E+00 -1.37963062E+00  5.43148067E+00  1.73379930E+00 -4.42688747E-01
  5.43148067E+00  1.73379930E+00 -4.42688747E-01 -1.37909201E+00 -1.30356726E+00
 -7.66557115E-01 -1.37909201E+00 -1.30356726E+00 -7.66557115E-01 -1.37909201E+00
 -1.30356726E+00 -7.66557115E-01 -1.37909201E+00 -1.30356726E+00 -7.66557115E-01
 -1.37909201E+00 -1.30356726E+00 -7.66557115E-01 -2.75873071E+00 -2.83154413E+00
 -9.62774128E-01 -2.75873071E+00 -2.83154413E+00 -9.62774128E-01 -8.87395697E-01
 -6.27105056E-01 -2.66761485E+00 -8.87395697E-01 -6.27105056E-01 -2.66761485E+00
 -2.47992220E+00  7.82754271E-01  8.19404303E-01 -2.47992220E+00  7.82754271E-01
  8.19404303E-01 -2.47992220E+00  7.82754271E-01  8.19404303E-01 -2.47992220E+00
  7.82754271E-01  8.19404303E-01 -2.47992220E+00  7.82754271E-01  8.19404303E-01
 -2.62316941E+00  3.78850179E-01  2.83258874E+00 -2.62316941E+00  3.78850179E-01
  2.83258874E+00 -3.33775741E+00  2.95681149E+00 -1.10269895E-01 -3.33775741E+00
  2.95681149E+00 -1.10269895E-01 -3.33775741E+00  2.95681149E+00 -1.10269895E-01
 -3.33775741E+00  2.95681149E+00 -1.10269895E-01 -3.33775741E+00  2.95681149E+00
 -1.10269895E-01 -3.19593754E+00  3.40336503E+00 -2.11387996E+00 -3.19593754E+00
  3.40336503E+00 -2.11387996E+00 -4.21489744E+00  4.36896396E+00  1.09301908E+00
 -4.21489744E+00  4.36896396E+00  1.09301908E+00
Overlap Matrix                             R   N=        8515
  1.00000000E+00  2.33689906E-01  1.00000000E+00 -6.07995673E-18 -2.70365558E-16
  1.00000000E+00  1.77245377E-16  5.53877555E-20 -4.90837967E-32  1.00000000E+00
  5.73116944E-18 -3.80477292E-17  2.36715444E-32 -1.11453267E-32  1.00000000E+00
  1.67279760E-01  7.63640773E-01 -5.20582958E-17  0.00000000E+00 -2.60291479E-17
  1.00000000E+00  6.73414447E-18  6.21162323E-18  5.01520641E-01  0.00000000E+00
  3.00321707E-33  0.00000000E+00  1.00000000E+00 -2.11850475E-17  0.00000000E+00
  0.00000000E+00  5.01520641E-01  0.00000000E+00  0.00000000E+00  0.00000000E+00
  1.00000000E+00  8.75587191E-18  3.10581162E-18  3.00321707E-33  0.00000000E+00
  5.01520641E-01  0.00000000E+00  0.00000000E+00  0.00000000E+00  1.00000000E+00
  7.23158236E-02  4.09528899E-01  0.00000000E+00  0.00000000E+00 -3.16291836E-17
  7.86651414E-01  0.00000000E+00  0.00000000E+00 -4.53815269E-17  1.00000000E+00
  3.38338941E-19  0.00000000E+00  1.68056960E-01  0.00000000E+00  0.00000000E+00
  0.00000000E+00  6.70353497E-01  0.00000000E+00  0.00000000E+00  0.00000000E+00
  1.00000000E+00  0.00000000E+00  0.00000000E+00  0.00000000E+00  1.68056960E-01
  0.00000000E+00  0.00000000E+00  0.00000000E+00  6.70353497E-01  0.00000000E+00
 -2.58183552E-16  0.00000000E+00  1.00000000E+00  1.69210572E-19 -1.42001318E-17
  0.00000000E+00  0.00000000E+00  1.68056960E-01 -2.53875570E-17  0.00000000E+00
  0.00000000E+00  6.70353497E-01  3.22729440E-17  0.00000000E+00 -8.33234331E-33
  1.00000000E+00  3.35315380E-02  5.47065748E-01  3.06879939E-16 -8.14400261E-17
  0.00000000E+00  6.99014733E-01  0.00000000E+00  0.00000000E+00  0.00000000E+00
  4.70781922E-01  0.00000000E+00  1.21548149E-16 -1.51935186E-17  1.00000000E+00
  3.35315380E-02  5.47065748E-01  1.02293313E-16 -2.44320078E-16  0.00000000E+00
  6.99014733E-01  0.00000000E+00  0.00000000E+00  0.00000000E+00  4.70781922E-01
  0.00000000E+00  3.64644446E-16 -1.51935186E-17  3.33333333E-01  1.00000000E+00
  3.35315380E-02  5.47065748E-01  1.02293313E-16 -8.14400261E-17  0.00000000E+00
  6.99014733E-01  0.00000000E+00  0.00000000E+00  0.00000000E+00  4.70781922E-01
  0.00000000E+00  1.21548149E-16 -4.55805558E-17  3.33333333E-01  3.33333333E-01
  1.00000000E+00 -3.41511838E-35  1.58228057E-32 -1.41058263E-16  1.77177216E-16
  0.00000000E+00  0.00000000E+00  0.00000000E+00  0.00000000E+00  0.00000000E+00
  0.00000000E+00  2.10527569E-16  0.00000000E+00  0.00000000E+00  0.00000000E+00
  0.00000000E+00  0.00000000E+00  1.00000000E+00  3.03042584E-33  0.00000000E+00
  0.00000000E+00  0.00000000E+00  1.77177216E-16  0.00000000E+00  0.00000000E+00
  0.00000000E+00  0.00000000E+00  0.00000000E+00 -2.63159462E-17  0.00000000E+00
  0.00000000E+00  0.00000000E+00  0.00000000E+00  0.00000000E+00  0.00000000E+00
  1.00000000E+00  1.49163904E-32  0.00000000E+00  0.00000000E+00  0.00000000E+00
 -1.41058263E-16  0.00000000E+00  0.00000000E+00  0.00000000E+00  0.00000000E+00
 -3.55597495E-32  0.00000000E+00 -2.63159462E-17  2.10527569E-16  0.00000000E+00
  0.00000000E+00  0.00000000E+00  0.00000000E+00  0.00000000E+00  1.00000000E+00
  1.85141080E-07  2.84194855E-03  6.56159331E-03  3.64974414E-03 -6.09803516E-05
  4.78149164E-02  1.04885012E-01  5.83400159E-02 -9.74751804E-04  6.54577381E-02
  8.35502514E-02  4.64730175E-02 -7.76476606E-04  3.87119114E-02  1.27171152E-02
  1.07482289E-03  3.62632955E-02 -6.05891379E-04 -3.37013955E-04  1.00000000E+00
  1.08714573E-02  1.10780316E-01  1.26145900E-01  7.01659242E-02 -1.17234046E-03
  2.97239049E-01  4.49720690E-01  2.50147392E-01 -4.17949186E-03  3.68118540E-01
  4.10386779E-01  2.28268756E-01 -3.81394105E-03  2.72603747E-01  1.46720692E-01
  9.03414346E-02  1.75609548E-01 -2.93410485E-03 -1.63203226E-03  2.19058872E-01
  1.00000000E+00 -2.19407077E-02 -1.65349985E-01 -1.52648500E-01 -1.15203580E-01
  1.92483488E-03 -2.57275183E-01 -1.92494954E-01 -2.30208066E-01  3.84634327E-03
 -1.28370487E-01  5.13792121E-02 -8.12496002E-02  1.35752781E-03 -2.59617058E-01
 -2.20190888E-01 -1.21579097E-01 -2.20084746E-01  3.67720166E-03  2.85455380E-03
 -1.52501710E-16 -5.57662744E-16  1.00000000E+00 -1.22040434E-02 -9.19723473E-02
 -1.15203580E-01 -9.61237001E-03  1.07064771E-03 -1.43103747E-01 -2.30208066E-01
  9.33301107E-02  2.13944512E-03 -7.14033025E-02 -8.12496002E-02  1.52258268E-01
  7.55095440E-04 -2.44946456E-01 -2.19363200E-02 -6.76257390E-02 -1.43114015E-02
  2.85455380E-03  1.33003412E-04  5.82650750E-17 -2.58206796E-17  0.00000000E+00
  1.00000000E+00  2.03906582E-04  1.53668473E-03  1.92483488E-03  1.07064771E-03
  5.44492374E-02  2.39099413E-03  3.84634327E-03  2.13944512E-03  2.21342615E-01
  1.19301472E-03  1.35752781E-03  7.55095440E-04  1.97438981E-01  4.09259401E-03
  2.04635020E-03 -5.49936848E-04  2.85455380E-03  1.56489230E-01  8.70437445E-02
  5.69958000E-18  0.00000000E+00  0.00000000E+00  0.00000000E+00  1.00000000E+00
  4.05095211E-02  2.39322049E-01  1.18360704E-01  6.58355775E-02 -1.09998852E-03
  4.86165012E-01  4.34551191E-01  2.41709687E-01 -4.03851369E-03  6.33371869E-01
  5.48727915E-01  3.05218016E-01 -5.09961828E-03  3.27239963E-01  2.75898449E-01
  2.52904119E-01  7.16225075E-02 -1.19667722E-03 -6.65625783E-04  1.84261053E-01
  8.12273068E-01  4.08606953E-16 -1.91107787E-16  0.00000000E+00  1.00000000E+00
 -7.29450240E-02 -3.73664449E-01 -5.98475202E-02 -1.04954099E-01  1.75358535E-03
 -5.49732503E-01 -1.83400222E-02 -2.73313932E-01  4.56656112E-03 -3.88337502E-01
  2.60876899E-01 -1.87137458E-01  3.12671452E-03 -3.34676637E-01 -4.18625562E-01
 -3.83735862E-01 -3.07095226E-02  5.13098292E-04  1.00996569E-03 -2.32569778E-17
  3.20244508E-16  5.69754058E-01 -6.97195662E-32  0.00000000E+00  0.00000000E+00
  1.00000000E+00 -4.05740894E-02 -2.07842755E-01 -1.04954099E-01  7.04629103E-02
  9.75393865E-04 -3.05776796E-01 -2.73313932E-01  3.21005048E-01  2.54005070E-03
 -2.16004323E-01 -1.87137458E-01  4.93225735E-01  1.73916722E-03 -2.76182356E-01
 -1.42825674E-01 -2.13444761E-01  7.97188681E-02  1.00996569E-03 -7.40869538E-04
  1.19150003E-17 -1.63464077E-16 -6.97195662E-32  5.69754058E-01  0.00000000E+00
  0.00000000E+00  0.00000000E+00  1.00000000E+00  6.77916627E-04  3.47266104E-03
  1.75358535E-03  9.75393865E-04  1.28825057E-01  5.10895444E-03  4.56656112E-03
  2.54005070E-03  4.72987563E-01  3.60902547E-03  3.12671452E-03  1.73916722E-03
  5.97287834E-01  4.61448707E-03  3.89050841E-03  2.06209965E-03  1.00996569E-03
  1.40149601E-01  7.79551796E-02  1.82301584E-18  0.00000000E+00  0.00000000E+00
  0.00000000E+00  5.69754058E-01  0.00000000E+00  0.00000000E+00  0.00000000E+00
  1.00000000E+00  3.34529908E-02  2.01851116E-01  2.86639604E-02  1.59437070E-02
 -2.66389320E-04  4.50798626E-01  1.46247500E-01  8.13470039E-02 -1.35915525E-03
  7.64525200E-01  3.39370267E-01  1.88767360E-01 -3.15394710E-03  2.52096288E-01
  2.48224399E-01  2.46490296E-01  5.40136803E-03 -9.02466881E-05 -5.01977653E-05
  6.97718343E-02  4.02090587E-01  1.22800804E-16 -6.14004021E-17  1.41217620E-17
  7.27666104E-01  0.00000000E+00  1.32732857E-16  0.00000000E+00  1.00000000E+00
 -3.11516873E-02 -1.80720106E-01  3.54396028E-02 -1.43499533E-02  2.39760697E-04
 -3.63109777E-01  1.94646578E-01 -6.55234749E-02  1.09477388E-03 -4.71373420E-01
  5.15796502E-01 -1.16385851E-01  1.94458840E-03 -1.99792923E-01 -2.20312007E-01
 -2.18772900E-01  6.74560030E-03 -1.12706278E-04  4.45531159E-05  7.87251551E-18
  8.57484264E-17  1.64678564E-01 -2.30826850E-32  5.77067126E-33  0.00000000E+00
  5.88690339E-01  0.00000000E+00  0.00000000E+00  0.00000000E+00  1.00000000E+00
 -1.73274512E-02 -1.00521644E-01 -1.43499533E-02  5.32564257E-02  1.33361694E-04
 -2.01971948E-01 -6.55234749E-02  2.76000163E-01  6.08944253E-04 -2.62191254E-01
 -1.16385851E-01  6.60300533E-01  1.08163517E-03 -1.24455261E-01 -1.09219006E-01
 -1.21687687E-01  1.80795904E-02  4.45531159E-05 -1.68023181E-04 -2.19831154E-18
 -4.28742132E-17 -2.30826850E-32  1.64678564E-01 -2.88533563E-33  6.76300053E-17
  0.00000000E+00  5.88690339E-01  0.00000000E+00  0.00000000E+00  0.00000000E+00
  1.00000000E+00  2.89509080E-04  1.67952738E-03  2.39760697E-04  1.33361694E-04
  6.12360481E-02  3.37457090E-03  1.09477388E-03  6.08944253E-04  3.12436002E-01
  4.38072211E-03  1.94458840E-03  1.08163517E-03  7.25019569E-01  2.07941305E-03
  2.04747582E-03  1.81054018E-03  4.45531159E-05  2.07454012E-02  1.15391800E-02
  8.26265674E-19  1.08770537E-17  5.77067126E-33 -2.88533563E-33  1.64678564E-01
  0.00000000E+00  0.00000000E+00  0.00000000E+00  5.88690339E-01  0.00000000E+00
  0.00000000E+00  0.00000000E+00  1.00000000E+00  2.25301161E-02  1.92540385E-01
  1.83632792E-01  1.62280612E-01 -2.71140343E-03  3.13292968E-01  3.25895741E-01
  3.02831004E-01 -5.05973580E-03  3.08416301E-01  2.91816170E-01  2.01751660E-01
 -3.37089031E-03  2.67174457E-01  2.71641296E-01  1.21414440E-01  2.80817931E-01
 -4.69193881E-03 -4.34867514E-03  7.91027073E-02  7.10235064E-01  0.00000000E+00
  0.00000000E+00  4.07504777E-17  6.29936196E-01 -6.89436245E-16  1.14906041E-16
  0.00000000E+00  3.23540475E-01 -1.80421025E-16 -3.00701709E-17  0.00000000E+00
  1.00000000E+00  7.18584980E-03  8.04020566E-02  1.17854982E-01  5.41543135E-03
 -1.09528858E-03  2.25593280E-01  3.92033101E-01  9.65013624E-02 -3.64337063E-03
  2.92500124E-01  3.43995480E-01  1.51904797E-01 -3.19693165E-03  2.71641296E-01
  4.99081523E-02  5.43287825E-02  2.22732020E-02 -3.49835186E-03 -2.06996628E-04
  7.91027073E-02  7.10235064E-01  0.00000000E+00  0.00000000E+00  4.07504777E-17
  6.29936196E-01 -2.29812082E-16  3.44718122E-16  0.00000000E+00  3.23540475E-01
 -6.01403417E-17 -9.02105126E-17  0.00000000E+00  3.33333333E-01  1.00000000E+00
  3.13611532E-04  3.01786510E-02  3.99718002E-02  2.22334480E-02  6.33327878E-04
  1.86315211E-01  3.23776178E-01  1.80093485E-01 -9.78008412E-04  2.85371744E-01
  3.35612131E-01  1.86676978E-01 -2.46013222E-03  1.21414440E-01  5.43287825E-02
  7.27822635E-02  9.35859235E-02  1.56256405E-03  8.69142406E-04  7.91027073E-02
  7.10235064E-01  0.00000000E+00  0.00000000E+00  1.22251433E-16  6.29936196E-01
 -2.29812082E-16  1.14906041E-16  0.00000000E+00  3.23540475E-01 -6.01403417E-17
 -3.00701709E-17  0.00000000E+00  3.33333333E-01  3.33333333E-01  1.00000000E+00
  2.14055790E-02  1.56435361E-01  1.90507985E-01  4.13014997E-02 -2.25451471E-03
  1.22342936E-01  1.07333182E-01 -7.10043695E-02 -1.97585965E-03  2.22034069E-02
 -8.03954617E-03 -4.68746547E-02 -2.42676048E-04  2.80817931E-01  2.22732020E-02
  9.35859235E-02  5.20250139E-02 -4.52028771E-03 -6.44571037E-04 -8.24355562E-32
  0.00000000E+00  0.00000000E+00  0.00000000E+00  0.00000000E+00 -2.08445915E-31
  1.99023101E-16 -3.98046202E-16  0.00000000E+00  9.32543738E-32 -5.20830637E-17
 -1.04166127E-16  0.00000000E+00  0.00000000E+00  0.00000000E+00  0.00000000E+00
  1.00000000E+00 -3.57646916E-04 -2.61374030E-03 -3.18302968E-03 -2.25451471E-03
 -9.35961286E-02 -2.04412007E-03 -1.79333534E-03 -1.97585965E-03 -1.89228828E-01
 -3.70977117E-04  1.34325677E-04 -2.42676048E-04 -6.13950405E-02 -4.69193881E-03
 -3.49835186E-03  1.56256405E-03 -4.52028771E-03 -2.18443876E-01 -1.61983565E-01
  2.05554526E-32  0.00000000E+00  7.05818979E-17  0.00000000E+00  0.00000000E+00
  0.00000000E+00  0.00000000E+00  0.00000000E+00 -3.98046202E-16  0.00000000E+00
  0.00000000E+00  0.00000000E+00 -1.04166127E-16  0.00000000E+00  0.00000000E+00
  0.00000000E+00  0.00000000E+00  1.00000000E+00 -1.98933349E-04 -1.45383642E-03
 -2.25451471E-03 -3.83836647E-04 -5.20608190E-02 -1.13699751E-03 -1.97585965E-03
  6.59881100E-04 -1.05254436E-01 -2.06347985E-04 -2.42676048E-04  4.35630919E-04
 -3.41496613E-02 -4.34867514E-03 -2.06996628E-04  8.69142406E-04 -6.44571037E-04
 -1.61983565E-01 -1.73259754E-02 -1.19527596E-32  0.00000000E+00  0.00000000E+00
  7.05818979E-17  0.00000000E+00  0.00000000E+00  0.00000000E+00  0.00000000E+00
  1.99023101E-16  0.00000000E+00  0.00000000E+00  0.00000000E+00 -5.20830637E-17
  0.00000000E+00  0.00000000E+00  0.00000000E+00  0.00000000E+00  0.00000000E+00
  1.00000000E+00  5.28064423E-05  3.28168108E-03  6.27992755E-03  1.11068165E-04
  1.43591084E-03  5.06038095E-02  1.38528457E-01  2.45004443E-03  3.16746511E-02
  1.59248290E-01  3.03613723E-01  5.36977835E-03  6.94215392E-02  2.88143514E-02
  3.28236388E-03  4.60963595E-03  7.82377015E-04  1.01147223E-02  1.78891178E-04
  3.33265040E-02  2.76242242E-01  2.61290300E-01 -2.13666912E-01  1.56190636E-01
  3.78657079E-01  3.62029798E-01 -2.96045391E-01  2.16409352E-01  2.59217643E-01
  1.47142757E-01 -1.20324170E-01  8.79570380E-02  2.86897351E-01  2.31259888E-01
  1.78970247E-01 -2.37855796E-01  1.73872724E-01 -1.42182270E-01  1.00000000E+00
  1.21725272E-02  8.37292459E-02  6.42021146E-02  1.13549257E-03  1.46798688E-02
  2.26010428E-01  3.23073960E-01  5.71395634E-03  7.38711392E-02  4.20348521E-01
  5.89854776E-01  1.04322999E-02  1.34870802E-01  1.59013710E-01  9.18205199E-02
  9.53135360E-02  2.05900178E-03  2.66191756E-02  4.70792530E-04  9.26547359E-02
  4.77970022E-01  1.86759367E-01 -1.52720163E-01  1.11638528E-01  7.06358080E-01
  4.08875315E-01 -3.34352733E-01  2.44412042E-01  6.41880526E-01  3.04625446E-01
 -2.49103692E-01  1.82094943E-01  3.92457756E-01  3.79310539E-01  3.66954419E-01
 -5.62056823E-02  4.10863863E-02 -3.35978844E-02  6.58292049E-01  1.00000000E+00
  2.59157644E-20  3.35505958E-08  9.14327820E-08  1.17188637E-07 -3.09935056E-08
  1.21004375E-03  3.26537213E-03  4.18520034E-03 -1.10688231E-03  1.97438107E-02
  3.10914801E-02  3.98496918E-02 -1.05392611E-02  4.07317467E-06  6.63040928E-06
  5.51658926E-07  8.83250241E-06 -2.33597914E-06 -2.99400507E-06  5.62094537E-06
  2.04284059E-02  9.20693686E-03  4.03605786E-02 -1.60999007E-02  6.53901803E-02
  2.70900661E-02  1.18755104E-01 -4.73716049E-02  5.29323217E-02  1.14770176E-02
  5.03119634E-02 -2.00695244E-02  3.53718340E-03  4.59858460E-02  8.33233034E-03
  1.76925819E-02 -7.05759984E-03 -3.09384997E-02  4.71934780E-05  1.46558583E-02
  1.00000000E+00  7.01736546E-06  7.04044909E-04  8.99639696E-04  1.15306073E-03
 -3.04956136E-04  2.28908332E-02  4.34281592E-02  5.56615110E-02 -1.47210974E-02
  1.29137521E-01  1.77843986E-01  2.27941161E-01 -6.02848176E-02  3.69315697E-03
  5.52102450E-03  1.17603778E-03  6.31332156E-03 -1.66971791E-03 -2.14006358E-03
  2.04284059E-02  2.08465218E-01  5.96264833E-02  2.61385453E-01 -1.04267084E-01
  3.63797200E-01  1.17113229E-01  5.13390908E-01 -2.04792472E-01  3.11003289E-01
  6.27138075E-02  2.74919400E-01 -1.09665798E-01  1.06283400E-01  2.97920278E-01
  1.27931361E-01  7.98741574E-02 -3.18619319E-02 -1.39673599E-01  8.29635052E-03
  1.12158592E-01  2.19058872E-01  1.00000000E+00 -1.73165356E-05 -1.21228975E-03
 -1.27470639E-03 -2.00287007E-03  5.29709756E-04 -2.19172376E-02 -2.74285889E-02
 -5.47451556E-02  1.44787440E-02 -5.44392833E-02 -8.48860725E-03 -9.78604536E-02
  2.58816774E-02 -4.04129673E-03 -8.78444423E-03 -1.86236440E-03 -8.02534948E-03
  2.12250709E-03  3.40937543E-03 -9.20693686E-03 -5.96264833E-02  9.96384395E-02
 -8.59610145E-02  3.42899891E-02 -5.28235466E-02  2.28145183E-01 -7.76985487E-02
  3.09940780E-02 -1.39061287E-02  1.24201723E-01 -1.24190714E-02  4.95398786E-03
  1.05157461E-02 -1.14066491E-01 -4.35509161E-02  1.38033191E-01 -5.50616655E-02
  5.79400373E-02  4.07448993E-03  2.64697879E-02 -3.33581183E-16  7.60499157E-17
  1.00000000E+00 -2.21944598E-05 -1.55378170E-03 -2.00287007E-03 -2.27909138E-03
  6.78924595E-04 -2.80911415E-02 -5.47451556E-02 -5.48817987E-02  1.85572860E-02
 -6.97743774E-02 -9.78604536E-02 -5.75629691E-02  3.31723311E-02 -7.52665013E-03
 -8.91199556E-03 -2.38697698E-03 -1.13052782E-02  3.40937543E-03  3.83221635E-03
 -4.03605786E-02 -2.61385453E-01 -8.59610145E-02 -2.57580894E-01  1.50317507E-01
 -2.31563324E-01 -7.76985487E-02 -9.47386728E-02  1.35869176E-01 -6.09604921E-02
 -1.24190714E-02  7.25930672E-02  2.17168663E-02 -1.51548548E-01 -3.02388310E-01
 -1.90914763E-01 -1.06202831E-01  5.79400373E-02  1.85713779E-01 -1.53981710E-02
 -1.00033704E-01 -5.22816126E-17  1.38067997E-16  0.00000000E+00  1.00000000E+00
  5.86988747E-06  4.10936955E-04  5.29709756E-04  6.78924595E-04  1.08411735E-04
  7.42941439E-03  1.44787440E-02  1.85572860E-02  1.03766679E-02  1.84536027E-02
  2.58816774E-02  3.31723311E-02  5.90906979E-02  1.99061341E-03  2.97771451E-03
  1.05851804E-05  3.40937543E-03  6.84115802E-04  8.76825542E-04  1.60999007E-02
  1.04267084E-01  3.42899891E-02  1.50317507E-01  5.92857148E-02  9.23709883E-02
  3.09940780E-02  1.35869176E-01  1.91671112E-01  2.43172399E-02  4.95398786E-03
  2.17168663E-02  1.18371832E-01  6.04529635E-02  1.99464731E-01 -2.68532954E-03
  5.79400373E-02  1.59337278E-02  6.98489068E-02  7.87885058E-03  5.11846899E-02
  6.68327172E-17 -1.80387378E-17 -5.38497851E-32  0.00000000E+00  1.00000000E+00
  3.71529056E-03  3.00755944E-02  1.76565057E-02  2.26301967E-02 -5.98512913E-03
  1.08432596E-01  1.19587492E-01  1.53274295E-01 -4.05372723E-02  2.80756190E-01
  3.00120926E-01  3.84662499E-01 -1.01733748E-01  4.88858543E-02  5.86001873E-02
  3.55084441E-02  3.35525997E-02 -8.87383545E-03 -1.13735212E-02  6.53901803E-02
  3.63797200E-01  5.28235466E-02  2.31563324E-01 -9.23709883E-02  5.84407134E-01
  1.25556246E-01  5.50402682E-01 -2.19556529E-01  5.83136950E-01  1.01355691E-01
  4.44314368E-01 -1.77237727E-01  2.63580803E-01  3.39559946E-01  2.72163668E-01
  3.16680698E-02 -1.26324448E-02 -5.53770259E-02  7.57767435E-02  2.66036046E-01
  1.84261053E-01  8.12273068E-01 -2.63913784E-17  0.00000000E+00 -9.55538935E-17
  1.00000000E+00 -8.25267263E-03 -5.80638314E-02 -1.90718714E-02 -4.44091720E-02
  1.17451312E-02 -1.51285124E-01 -6.13454220E-02 -2.13848248E-01  5.65575896E-02
 -2.12397087E-01  3.77271610E-02 -2.91004071E-01  7.69634028E-02 -6.48545621E-02
 -1.09709477E-01 -6.64778219E-02 -3.32152262E-02  8.78460848E-03  2.12931582E-02
 -2.70900661E-02 -1.17113229E-01  2.28145183E-01 -7.76985487E-02  3.09940780E-02
 -1.25556246E-01  5.57432153E-01 -1.18250601E-01  4.71703578E-02 -5.16427211E-02
  4.62788493E-01 -3.93485664E-02  1.56962074E-02 -5.47058352E-02 -1.20493466E-01
 -9.65777739E-02  1.36162968E-01 -5.43156303E-02  1.96506386E-02  4.59437270E-02
  9.81268031E-02  4.44313580E-18  6.68364638E-18  5.69754058E-01  0.00000000E+00
  0.00000000E+00 -3.64818029E-16  1.00000000E+00 -1.05773820E-02 -7.44199305E-02
 -4.44091720E-02 -4.13418660E-02  1.50536371E-02 -1.93900888E-01 -2.13848248E-01
 -1.68584515E-01  7.24893930E-02 -2.72227583E-01 -2.91004071E-01 -1.08203484E-01