Jobname.Temp
SP        R                             6-31+G(d)           
Number of atoms                            I               14
Charge                                     I                0
Multiplicity                               I                1
Number of electrons                        I               46
Number of alpha electrons                  I               23
Number of beta electrons                   I               23
Atomic numbers                             I   N=          14
           8           6           1           6           1           1
           6           1           1           6           1           6
           1           1
Current cartesian coordinates              R   N=          42
  1.18170097E+00 -2.55312991E+00 -1.42932096E-01  2.47654564E+00 -6.96538535E-01
  7.12370442E-01  3.13033355E+00 -8.18054338E-01  2.68299785E+00  2.71762898E+00
  1.58646217E+00 -5.26469777E-01  2.42506833E+00  1.67090790E+00 -2.55297245E+00
  3.84201596E+00  3.08430209E+00  3.15044519E-01 -2.35148011E+00 -1.73036963E+00
 -6.29009503E-01 -3.06666340E+00 -3.51378346E+00  8.10452401E-02 -2.14925676E+00
 -1.60709684E+00 -2.66567045E+00 -2.61974405E+00  4.78020223E-01  7.83551422E-01
 -3.00827831E+00  2.95288469E-01  2.79397993E+00 -1.52458009E+00  2.68307785E+00
 -9.15437560E-02 -1.43043076E+00  3.04516236E+00 -2.10673834E+00 -1.39846362E+00
  4.34217230E+00  1.11022947E+00
Nuclear charges                            R   N=          14
  8.00000000E+00  6.00000000E+00  1.00000000E+00  6.00000000E+00  1.00000000E+00
  1.00000000E+00  6.00000000E+00  1.00000000E+00  1.00000000E+00  6.00000000E+00
  1.00000000E+00  6.00000000E+00  1.00000000E+00  1.00000000E+00
Number of basis functions                  I              130
Number of contracted shells                I               46
Number of primitive shells                 I              104
Highest angular momentum                   I                2
Largest degree of contraction              I                6
Shell types                                I   N=          46
           0          -1          -1          -1           2           0
          -1          -1          -1           2           0           0
           0          -1          -1          -1           2           0
           0           0           0           0          -1          -1
          -1           2           0           0           0           0
           0          -1          -1          -1           2           0
           0           0          -1          -1          -1           2
           0           0           0           0
Number of primitives per shell             I   N=          46
           6           3           1           1           1           6
           3           1           1           1           3           1
           6           3           1           1           1           3
           1           3           1           6           3           1
           1           1           3           1           3           1
           6           3           1           1           1           3
           1           6           3           1           1           1
           3           1           3           1
Shell to atom map                          I   N=          46
           1           1           1           1           1           2
           2           2           2           2           3           3
           4           4           4           4           4           5
           5           6           6           7           7           7
           7           7           8           8           9           9
          10          10          10          10          10          11
          11          12          12          12          12          12
          13          13          14          14
Primitive exponents                        R   N=         104
  5.48467170E+03  8.25234950E+02  1.88046960E+02  5.29645000E+01  1.68975700E+01
  5.79963530E+00  1.55396160E+01  3.59993360E+00  1.01376180E+00  2.70005800E-01
  8.45000000E-02  8.00000000E-01  3.04752490E+03  4.57369510E+02  1.03948690E+02
  2.92101550E+01  9.28666300E+00  3.16392700E+00  7.86827240E+00  1.88128850E+00
  5.44249300E-01  1.68714400E-01  4.38000000E-02  8.00000000E-01  1.87311370E+01
  2.82539370E+00  6.40121700E-01  1.61277800E-01  3.04752490E+03  4.57369510E+02
  1.03948690E+02  2.92101550E+01  9.28666300E+00  3.16392700E+00  7.86827240E+00
  1.88128850E+00  5.44249300E-01  1.68714400E-01  4.38000000E-02  8.00000000E-01
  1.87311370E+01  2.82539370E+00  6.40121700E-01  1.61277800E-01  1.87311370E+01
  2.82539370E+00  6.40121700E-01  1.61277800E-01  3.04752490E+03  4.57369510E+02
  1.03948690E+02  2.92101550E+01  9.28666300E+00  3.16392700E+00  7.86827240E+00
  1.88128850E+00  5.44249300E-01  1.68714400E-01  4.38000000E-02  8.00000000E-01
  1.87311370E+01  2.82539370E+00  6.40121700E-01  1.61277800E-01  1.87311370E+01
  2.82539370E+00  6.40121700E-01  1.61277800E-01  3.04752490E+03  4.57369510E+02
  1.03948690E+02  2.92101550E+01  9.28666300E+00  3.16392700E+00  7.86827240E+00
  1.88128850E+00  5.44249300E-01  1.68714400E-01  4.38000000E-02  8.00000000E-01
  1.87311370E+01  2.82539370E+00  6.40121700E-01  1.61277800E-01  3.04752490E+03
  4.57369510E+02  1.03948690E+02  2.92101550E+01  9.28666300E+00  3.16392700E+00
  7.86827240E+00  1.88128850E+00  5.44249300E-01  1.68714400E-01  4.38000000E-02
  8.00000000E-01  1.87311370E+01  2.82539370E+00  6.40121700E-01  1.61277800E-01
  1.87311370E+01  2.82539370E+00  6.40121700E-01  1.61277800E-01
Contraction coefficients                   R   N=         104
  1.83109981E-03  1.39500985E-02  6.84450927E-02  2.32714275E-01  4.70192950E-01
  3.58520862E-01 -1.10777504E-01 -1.48026305E-01  1.13076704E+00  1.00000000E+00
  1.00000000E+00  1.00000000E+00  1.83470016E-03  1.40373012E-02  6.88426061E-02
  2.32184421E-01  4.67941342E-01  3.62312032E-01 -1.19332409E-01 -1.60854212E-01
  1.14345648E+00  1.00000000E+00  1.00000000E+00  1.00000000E+00  3.34945995E-02
  2.34726947E-01  8.13757318E-01  1.00000000E+00  1.83470016E-03  1.40373012E-02
  6.88426061E-02  2.32184421E-01  4.67941342E-01  3.62312032E-01 -1.19332409E-01
 -1.60854212E-01  1.14345648E+00  1.00000000E+00  1.00000000E+00  1.00000000E+00
  3.34945995E-02  2.34726947E-01  8.13757318E-01  1.00000000E+00  3.34945995E-02
  2.34726947E-01  8.13757318E-01  1.00000000E+00  1.83470016E-03  1.40373012E-02
  6.88426061E-02  2.32184421E-01  4.67941342E-01  3.62312032E-01 -1.19332409E-01
 -1.60854212E-01  1.14345648E+00  1.00000000E+00  1.00000000E+00  1.00000000E+00
  3.34945995E-02  2.34726947E-01  8.13757318E-01  1.00000000E+00  3.34945995E-02
  2.34726947E-01  8.13757318E-01  1.00000000E+00  1.83470016E-03  1.40373012E-02
  6.88426061E-02  2.32184421E-01  4.67941342E-01  3.62312032E-01 -1.19332409E-01
 -1.60854212E-01  1.14345648E+00  1.00000000E+00  1.00000000E+00  1.00000000E+00
  3.34945995E-02  2.34726947E-01  8.13757318E-01  1.00000000E+00  1.83470016E-03
  1.40373012E-02  6.88426061E-02  2.32184421E-01  4.67941342E-01  3.62312032E-01
 -1.19332409E-01 -1.60854212E-01  1.14345648E+00  1.00000000E+00  1.00000000E+00
  1.00000000E+00  3.34945995E-02  2.34726947E-01  8.13757318E-01  1.00000000E+00
  3.34945995E-02  2.34726947E-01  8.13757318E-01  1.00000000E+00
P(S=P) Contraction coefficients            R   N=         104
  0.00000000E+00  0.00000000E+00  0.00000000E+00  0.00000000E+00  0.00000000E+00
  0.00000000E+00  7.08742995E-02  3.39752798E-01  7.27158595E-01  1.00000000E+00
  1.00000000E+00  0.00000000E+00  0.00000000E+00  0.00000000E+00  0.00000000E+00
  0.00000000E+00  0.00000000E+00  0.00000000E+00  6.89990956E-02  3.16423980E-01
  7.44308252E-01  1.00000000E+00  1.00000000E+00  0.00000000E+00  0.00000000E+00
  0.00000000E+00  0.00000000E+00  0.00000000E+00  0.00000000E+00  0.00000000E+00
  0.00000000E+00  0.00000000E+00  0.00000000E+00  0.00000000E+00  6.89990956E-02
  3.16423980E-01  7.44308252E-01  1.00000000E+00  1.00000000E+00  0.00000000E+00
  0.00000000E+00  0.00000000E+00  0.00000000E+00  0.00000000E+00  0.00000000E+00
  0.00000000E+00  0.00000000E+00  0.00000000E+00  0.00000000E+00  0.00000000E+00
  0.00000000E+00  0.00000000E+00  0.00000000E+00  0.00000000E+00  6.89990956E-02
  3.16423980E-01  7.44308252E-01  1.00000000E+00  1.00000000E+00  0.00000000E+00
  0.00000000E+00  0.00000000E+00  0.00000000E+00  0.00000000E+00  0.00000000E+00
  0.00000000E+00  0.00000000E+00  0.00000000E+00  0.00000000E+00  0.00000000E+00
  0.00000000E+00  0.00000000E+00  0.00000000E+00  0.00000000E+00  6.89990956E-02
  3.16423980E-01  7.44308252E-01  1.00000000E+00  1.00000000E+00  0.00000000E+00
  0.00000000E+00  0.00000000E+00  0.00000000E+00  0.00000000E+00  0.00000000E+00
  0.00000000E+00  0.00000000E+00  0.00000000E+00  0.00000000E+00  0.00000000E+00
  6.89990956E-02  3.16423980E-01  7.44308252E-01  1.00000000E+00  1.00000000E+00
  0.00000000E+00  0.00000000E+00  0.00000000E+00  0.00000000E+00  0.00000000E+00
  0.00000000E+00  0.00000000E+00  0.00000000E+00  0.00000000E+00
Coordinates of each shell                  R   N=         138
  1.18170097E+00 -2.55312991E+00 -1.42932096E-01  1.18170097E+00 -2.55312991E+00
 -1.42932096E-01  1.18170097E+00 -2.55312991E+00 -1.42932096E-01  1.18170097E+00
 -2.55312991E+00 -1.42932096E-01  1.18170097E+00 -2.55312991E+00 -1.42932096E-01
  2.47654564E+00 -6.96538535E-01  7.12370442E-01  2.47654564E+00 -6.96538535E-01
  7.12370442E-01  2.47654564E+00 -6.96538535E-01  7.12370442E-01  2.47654564E+00
 -6.96538535E-01  7.12370442E-01  2.47654564E+00 -6.96538535E-01  7.12370442E-01
  3.13033355E+00 -8.18054338E-01  2.68299785E+00  3.13033355E+00 -8.18054338E-01
  2.68299785E+00  2.71762898E+00  1.58646217E+00 -5.26469777E-01  2.71762898E+00
  1.58646217E+00 -5.26469777E-01  2.71762898E+00  1.58646217E+00 -5.26469777E-01
  2.71762898E+00  1.58646217E+00 -5.26469777E-01  2.71762898E+00  1.58646217E+00
 -5.26469777E-01  2.42506833E+00  1.67090790E+00 -2.55297245E+00  2.42506833E+00
  1.67090790E+00 -2.55297245E+00  3.84201596E+00  3.08430209E+00  3.15044519E-01
  3.84201596E+00  3.08430209E+00  3.15044519E-01 -2.35148011E+00 -1.73036963E+00
 -6.29009503E-01 -2.35148011E+00 -1.73036963E+00 -6.29009503E-01 -2.35148011E+00
 -1.73036963E+00 -6.29009503E-01 -2.35148011E+00 -1.73036963E+00 -6.29009503E-01
 -2.35148011E+00 -1.73036963E+00 -6.29009503E-01 -3.06666340E+00 -3.51378346E+00
  8.10452401E-02 -3.06666340E+00 -3.51378346E+00  8.10452401E-02 -2.14925676E+00
 -1.60709684E+00 -2.66567045E+00 -2.14925676E+00 -1.60709684E+00 -2.66567045E+00
 -2.61974405E+00  4.78020223E-01  7.83551422E-01 -2.61974405E+00  4.78020223E-01
  7.83551422E-01 -2.61974405E+00  4.78020223E-01  7.83551422E-01 -2.61974405E+00
  4.78020223E-01  7.83551422E-01 -2.61974405E+00  4.78020223E-01  7.83551422E-01
 -3.00827831E+00  2.95288469E-01  2.79397993E+00 -3.00827831E+00  2.95288469E-01
  2.79397993E+00 -1.52458009E+00  2.68307785E+00 -9.15437560E-02 -1.52458009E+00
  2.68307785E+00 -9.15437560E-02 -1.52458009E+00  2.68307785E+00 -9.15437560E-02
 -1.52458009E+00  2.68307785E+00 -9.15437560E-02 -1.52458009E+00  2.68307785E+00
 -9.15437560E-02 -1.43043076E+00  3.04516236E+00 -2.10673834E+00 -1.43043076E+00
  3.04516236E+00 -2.10673834E+00 -1.39846362E+00  4.34217230E+00  1.11022947E+00
 -1.39846362E+00  4.34217230E+00  1.11022947E+00
Overlap Matrix                             R   N=        8515
  1.00000000E+00  2.33689906E-01  1.00000000E+00  5.30181315E-18 -2.98423153E-16
  1.00000000E+00  1.47464805E-16 -6.92041430E-17 -9.81675935E-32  1.00000000E+00
  7.38529635E-18  1.71806951E-18  0.00000000E+00  0.00000000E+00  1.00000000E+00
  1.67279760E-01  7.63640773E-01 -2.39256896E-16  3.27327085E-17  0.00000000E+00
  1.00000000E+00  0.00000000E+00 -1.92011415E-16  5.01520641E-01  0.00000000E+00
  0.00000000E+00  0.00000000E+00  1.00000000E+00  4.42784627E-20 -6.74390032E-18
  0.00000000E+00  5.01520641E-01  0.00000000E+00  0.00000000E+00  0.00000000E+00
  1.00000000E+00  0.00000000E+00  0.00000000E+00  0.00000000E+00  0.00000000E+00
  5.01520641E-01  0.00000000E+00  0.00000000E+00  0.00000000E+00  1.00000000E+00
  7.23158236E-02  4.09528899E-01  4.68956759E-17  0.00000000E+00 -8.71291968E-19
  7.86651414E-01  0.00000000E+00  0.00000000E+00  0.00000000E+00  1.00000000E+00
  5.99598891E-19 -3.13032743E-18  1.68056960E-01  0.00000000E+00  0.00000000E+00
  0.00000000E+00  6.70353497E-01  0.00000000E+00  0.00000000E+00  0.00000000E+00
  1.00000000E+00 -7.76212243E-18  0.00000000E+00  0.00000000E+00  1.68056960E-01
  0.00000000E+00  0.00000000E+00  0.00000000E+00  6.70353497E-01  0.00000000E+00
 -2.58183552E-16  0.00000000E+00  1.00000000E+00 -4.00547917E-19  1.00423353E-19
  0.00000000E+00  0.00000000E+00  1.68056960E-01  0.00000000E+00  0.00000000E+00
  0.00000000E+00  6.70353497E-01  0.00000000E+00  0.00000000E+00  0.00000000E+00
  1.00000000E+00  3.35315380E-02  5.47065748E-01  0.00000000E+00  0.00000000E+00
 -5.09000163E-18  6.99014733E-01  0.00000000E+00  0.00000000E+00  0.00000000E+00
  4.70781922E-01  0.00000000E+00  0.00000000E+00  0.00000000E+00  1.00000000E+00
  3.35315380E-02  5.47065748E-01  0.00000000E+00  0.00000000E+00 -5.09000163E-18
  6.99014733E-01  0.00000000E+00  0.00000000E+00  0.00000000E+00  4.70781922E-01
  0.00000000E+00  0.00000000E+00  0.00000000E+00  3.33333333E-01  1.00000000E+00
  3.35315380E-02  5.47065748E-01  0.00000000E+00  0.00000000E+00 -1.52700049E-17
  6.99014733E-01  0.00000000E+00  0.00000000E+00  0.00000000E+00  4.70781922E-01
  0.00000000E+00  0.00000000E+00  0.00000000E+00  3.33333333E-01  3.33333333E-01
  1.00000000E+00 -8.74965994E-33  0.00000000E+00  0.00000000E+00  0.00000000E+00
  0.00000000E+00  0.00000000E+00  0.00000000E+00  0.00000000E+00  0.00000000E+00
  0.00000000E+00  0.00000000E+00  0.00000000E+00  0.00000000E+00  0.00000000E+00
  0.00000000E+00  0.00000000E+00  1.00000000E+00 -2.48357210E-33  0.00000000E+00
 -8.81614144E-18  0.00000000E+00  0.00000000E+00  0.00000000E+00  0.00000000E+00
  0.00000000E+00  0.00000000E+00  0.00000000E+00  0.00000000E+00  0.00000000E+00
  0.00000000E+00  0.00000000E+00  0.00000000E+00  0.00000000E+00  0.00000000E+00
  1.00000000E+00  0.00000000E+00  0.00000000E+00  0.00000000E+00 -8.81614144E-18
  0.00000000E+00  0.00000000E+00  0.00000000E+00  0.00000000E+00  0.00000000E+00
  0.00000000E+00  0.00000000E+00  0.00000000E+00  0.00000000E+00  0.00000000E+00
  0.00000000E+00  0.00000000E+00  0.00000000E+00  0.00000000E+00  1.00000000E+00
  7.74747194E-07  4.98406709E-03  6.69864271E-03  9.60473685E-03  4.42475167E-03
  5.70802466E-02  7.25005020E-02  1.03953633E-01  4.78898086E-02  6.93424313E-02
  5.12424038E-02  7.34730638E-02  3.38478885E-02  2.19187394E-02  4.32814857E-02
  1.05142263E-02  5.02461369E-02  2.31476074E-02  3.31898099E-02  1.00000000E+00
  1.54919286E-02  1.40298276E-01  9.31969115E-02  1.33628833E-01  6.15607083E-02
  3.35834227E-01  2.93796535E-01  4.21255249E-01  1.94065688E-01  3.87128823E-01
  2.49848131E-01  3.58240565E-01  1.65035811E-01  1.87670254E-01  2.66686926E-01
  1.45487164E-01  1.85850753E-01  8.56185277E-02  1.22762694E-01  2.19058872E-01
  1.00000000E+00 -1.81497760E-02 -1.23459423E-01 -2.05699230E-02 -1.31357193E-01
 -6.05141993E-02 -1.69621824E-01  9.39327789E-02 -2.26789307E-01 -1.04478278E-01
 -7.82399194E-02  1.56319351E-01 -7.39085510E-02 -3.40485106E-02 -3.50156732E-02
 -2.53633461E-01 -1.23721271E-01 -3.29160569E-02 -1.51639113E-02 -1.31587473E-01
  8.49857365E-17 -5.57662744E-16  1.00000000E+00 -2.60237528E-02 -1.77020230E-01
 -1.31357193E-01 -1.17301639E-01 -8.67672729E-02 -2.43209416E-01 -2.26789307E-01
 -7.30753484E-02 -1.49804432E-01 -1.12183000E-01 -7.39085510E-02  1.01892937E-01
 -4.88198876E-02 -2.42227045E-01 -1.71647690E-01 -1.77395676E-01 -1.69655798E-01
 -1.31587473E-01 -1.12065206E-01  4.66284046E-18  1.55013582E-17  0.00000000E+00
  1.00000000E+00 -1.19887349E-02 -8.15504443E-02 -6.05141993E-02 -8.67672729E-02
  3.10703538E-02 -1.12042765E-01 -1.04478278E-01 -1.49804432E-01  1.83090154E-01
 -5.16809492E-02 -3.40485106E-02 -4.88198876E-02  1.85374920E-01 -1.11590202E-01
 -1.67536190E-01  6.73738434E-03 -1.31587473E-01  5.53587149E-02  7.93751678E-02
 -6.02245137E-17 -7.97809067E-17  5.94626130E-32 -9.28698253E-33  1.00000000E+00
  4.54431837E-02  2.64397535E-01  7.58646222E-02  1.08777220E-01  5.01119597E-02
  5.22547562E-01  2.70411130E-01  3.87724477E-01  1.78618587E-01  6.58648011E-01
  3.30364338E-01  4.73687382E-01  2.18220350E-01  3.06065360E-01  3.35051431E-01
  2.90591131E-01  6.81765385E-02  3.14078623E-02  4.50336382E-02  1.84261053E-01
  8.12273068E-01 -1.57078321E-16 -1.02151738E-16  8.89560489E-17  1.00000000E+00
 -4.73755102E-02 -2.38971527E-01  7.26130291E-02 -1.00408989E-01 -4.62568467E-02
 -3.42085789E-01  3.31404924E-01 -2.53823849E-01 -1.16932668E-01 -2.33800502E-01
  5.03884640E-01 -1.68144966E-01 -7.74617495E-02 -1.65632269E-01 -2.94326560E-01
 -2.55270325E-01  6.82963694E-02  3.14630665E-02 -3.95598841E-02  3.85326035E-20
  2.39126482E-17  5.69754058E-01  0.00000000E+00  0.00000000E+00  0.00000000E+00
  1.00000000E+00 -6.79285832E-02 -3.42645328E-01 -1.00408989E-01 -1.32836346E-03
 -6.63246063E-02 -4.90493989E-01 -2.53823849E-01  1.44488502E-01 -1.67661950E-01
 -3.35230940E-01 -1.68144966E-01  3.80062330E-01 -1.11067234E-01 -3.85505708E-01
 -2.73998568E-01 -3.66015088E-01  3.52903367E-03 -3.95598841E-02  2.33108381E-03
  1.43255722E-19 -8.00611269E-17  0.00000000E+00  5.69754058E-01 -8.11319261E-33
  0.00000000E+00  0.00000000E+00  1.00000000E+00 -3.12936332E-02 -1.57851330E-01
 -4.62568467E-02 -6.63246063E-02  1.12086680E-01 -2.25962890E-01 -1.16932668E-01
 -1.67661950E-01  4.31190353E-01 -1.54435638E-01 -7.74617495E-02 -1.11067234E-01
  5.69987244E-01 -1.77596435E-01 -1.94415793E-01 -1.00428463E-01 -3.95598841E-02
  7.11764157E-02  1.02055113E-01 -1.54081432E-17  8.34029501E-17  0.00000000E+00
 -8.11319261E-33  5.69754058E-01  0.00000000E+00  0.00000000E+00  0.00000000E+00
  1.00000000E+00  3.44815073E-02  2.07814337E-01  1.70879040E-02  2.45012054E-02
  1.12873212E-02  4.62762603E-01  8.69171776E-02  1.24624742E-01  5.74126645E-02
  7.80008500E-01  2.00457732E-01  2.87422968E-01  1.32411255E-01  2.55641968E-01
  2.57684277E-01  2.54551680E-01  4.80360227E-03  2.21294425E-03  3.17299311E-03
  6.97718343E-02  4.02090587E-01 -1.25557708E-16  0.00000000E+00 -2.45667697E-18
  7.27666104E-01 -2.65465714E-16  6.63664285E-17 -6.63664285E-17  1.00000000E+00
 -1.85897886E-02 -1.07718745E-01  5.41529594E-02 -1.27670683E-02 -5.88158818E-03
 -2.15801822E-01  2.80205934E-01 -5.81167237E-02 -2.67734634E-02 -2.78428772E-01
  6.68166627E-01 -1.02597374E-01 -4.72650016E-02 -1.17086044E-01 -1.32410709E-01
 -1.30801028E-01  1.52577396E-02  7.02900141E-03 -1.63043811E-03  3.47589242E-18
  9.73903175E-18  1.64678564E-01  0.00000000E+00  0.00000000E+00 -1.35260011E-16
  5.88690339E-01 -1.23363226E-32  1.23363226E-32  0.00000000E+00  1.00000000E+00
 -2.66546575E-02 -1.54450721E-01 -1.27670683E-02  4.47512632E-02 -8.43321686E-03
 -3.09423834E-01 -5.81167237E-02  2.37408655E-01 -3.83886828E-02 -3.99220439E-01
 -1.02597374E-01  5.92613703E-01 -6.77701323E-02 -1.88350162E-01 -1.69386585E-01
 -1.87546867E-01  8.82354365E-03 -1.63043811E-03  5.82834332E-03 -2.75168712E-18
  0.00000000E+00  0.00000000E+00  1.64678564E-01  0.00000000E+00  3.38150027E-17
 -1.23363226E-32  5.88690339E-01 -3.08408066E-33  0.00000000E+00  0.00000000E+00
  1.00000000E+00 -1.22793828E-02 -7.11530254E-02 -5.88158818E-03 -8.43321686E-03
  5.91720598E-02 -1.42546709E-01 -2.67734634E-02 -3.83886828E-02  3.03053283E-01
 -1.83914597E-01 -4.72650016E-02 -6.77701323E-02  7.08500595E-01 -8.67699664E-02
 -8.74631667E-02 -7.69704782E-02 -1.63043811E-03  1.16115920E-02  1.66490870E-02
  8.67187240E-19  3.17000849E-19  0.00000000E+00  0.00000000E+00  1.64678564E-01
 -3.38150027E-17  1.23363226E-32 -3.08408066E-33  5.88690339E-01  0.00000000E+00
  0.00000000E+00  0.00000000E+00  1.00000000E+00  1.28728202E-02  1.14552305E-01
  1.30726696E-02  1.42900812E-01  6.58321635E-02  2.63342973E-01  1.19365027E-01
  3.79890525E-01  1.75009608E-01  3.09084603E-01  1.67162862E-01  3.01747861E-01
  1.39010509E-01  6.78202445E-02  2.81906581E-01  1.18930806E-01  3.64303089E-02
  1.67828721E-02  1.65077431E-01  7.91027073E-02  7.10235064E-01  0.00000000E+00
 -2.90630936E-17  0.00000000E+00  6.29936196E-01 -6.89436245E-16  5.74530204E-17
 -5.74530204E-17  3.23540475E-01  0.00000000E+00  0.00000000E+00  0.00000000E+00
  1.00000000E+00  2.59248964E-02  1.92115287E-01  1.71439175E-01  1.21658412E-01
  1.13243206E-01  3.15055644E-01  3.16975237E-01  2.45748666E-01  2.09376252E-01
  3.17686062E-01  2.16304889E-01  2.48080961E-01  1.42879007E-01  2.81906581E-01
  1.63069882E-01  1.90871836E-01  1.87601108E-01  1.84772160E-01  1.23918882E-01
  7.91027073E-02  7.10235064E-01  0.00000000E+00 -8.71892807E-17  0.00000000E+00
  6.29936196E-01 -2.29812082E-16  1.72359061E-16 -5.74530204E-17  3.23540475E-01
  0.00000000E+00  0.00000000E+00  0.00000000E+00  3.33333333E-01  1.00000000E+00
  5.90496251E-03  7.31452676E-02  6.13459854E-02  8.79599154E-02 -1.66753295E-02
  2.35736137E-01  2.37172446E-01  3.40065746E-01  6.04992622E-02  3.04492710E-01
  2.07321848E-01  2.97264966E-01  1.08353311E-01  1.18930806E-01  1.90871836E-01
  6.96001644E-02  1.69208529E-01 -2.03955548E-02 -2.92438253E-02  7.91027073E-02
  7.10235064E-01  0.00000000E+00 -2.90630936E-17  0.00000000E+00  6.29936196E-01
 -2.29812082E-16  5.74530204E-17 -1.72359061E-16  3.23540475E-01  0.00000000E+00
  0.00000000E+00  0.00000000E+00  3.33333333E-01  3.33333333E-01  1.00000000E+00
  3.06990684E-02  1.82431609E-01  6.12967283E-02  1.67069402E-01  1.11512897E-01
  1.21630520E-01 -5.84033900E-02  4.93823616E-02  8.08318878E-02  2.02310176E-02
 -3.99743432E-02 -1.77355464E-02  9.09888106E-03  3.64303089E-02  1.87601108E-01
  1.69208529E-01  5.76641645E-02  4.16797944E-02  1.49692299E-01 -4.11643416E-32
  0.00000000E+00 -5.03387547E-17  0.00000000E+00  0.00000000E+00 -1.04222958E-31
  9.95115504E-17 -3.98046202E-16  9.50560350E-48  0.00000000E+00  0.00000000E+00
  0.00000000E+00  0.00000000E+00  0.00000000E+00  0.00000000E+00  0.00000000E+00
  1.00000000E+00  1.41425795E-02  8.40433820E-02  2.82384416E-02  1.11512897E-01
 -2.36175968E-02  5.60332735E-02 -2.69055261E-02  8.08318878E-02 -8.88401260E-02
  9.32011258E-03 -1.84155532E-02  9.09888106E-03 -3.32946284E-02  1.67828721E-02
  1.84772160E-01 -2.03955548E-02  4.16797944E-02 -1.36082631E-02 -7.66818744E-02
  6.75188194E-33  0.00000000E+00  0.00000000E+00  0.00000000E+00  0.00000000E+00
  1.04222958E-31 -9.95115504E-17  9.50560350E-48 -3.98046202E-16  0.00000000E+00
  0.00000000E+00  0.00000000E+00  0.00000000E+00  0.00000000E+00  0.00000000E+00
  0.00000000E+00  0.00000000E+00  1.00000000E+00  2.02781011E-02  1.20504198E-01
  1.11512897E-01  1.10356776E-01 -3.38636962E-02  8.03423723E-02  8.08318878E-02
  3.26192479E-02 -1.27381929E-01  1.33634876E-02  9.09888106E-03 -1.17151178E-02
 -4.77389463E-02  1.65077431E-01  1.23918882E-01 -2.92438253E-02  1.49692299E-01
 -7.66818744E-02 -7.00769583E-02 -2.10638447E-34  0.00000000E+00  0.00000000E+00
  0.00000000E+00 -5.03387547E-17 -2.60557394E-32  9.50560350E-48 -9.95115504E-17
  9.95115504E-17  0.00000000E+00  0.00000000E+00  0.00000000E+00  0.00000000E+00
  0.00000000E+00  0.00000000E+00  0.00000000E+00  0.00000000E+00  0.00000000E+00
  1.00000000E+00  3.81357011E-05  2.64403521E-03  2.67204645E-03  2.37920815E-03
  3.87503326E-03  4.54806118E-02  6.59233227E-02  5.86985705E-02  9.56027797E-02
  1.52759809E-01  1.54285640E-01  1.37376973E-01  2.23746854E-01  8.56788390E-03
  7.35011224E-03  1.50519469E-02  9.06516692E-03  1.47645019E-02  1.31464119E-02
  3.12442664E-02  2.67067856E-01  1.13996961E-01 -2.11879601E-02  3.43606131E-01
  3.72812229E-01  1.61626875E-01 -3.00406585E-02  4.87170752E-01  2.58000638E-01
  6.64113841E-02 -1.23435023E-02  2.00175150E-01  1.47102512E-01  1.15271664E-01
  4.13670530E-01 -1.06138491E-02  1.72125284E-01 -3.19919374E-02  1.00000000E+00
  1.11544271E-02  7.75807709E-02  3.14718425E-02  2.80227405E-02  4.56408370E-02
  2.13754660E-01  1.61872749E-01  1.44132586E-01  2.34749768E-01  4.07673632E-01
  3.03062967E-01  2.69849307E-01  4.39505487E-01  1.02758331E-01  9.91293656E-02
  1.22080870E-01  2.70142406E-02  4.39982861E-02  3.91763702E-02  9.10208789E-02
  4.71352719E-01  8.34674173E-02 -1.55136092E-02  2.51584920E-01  6.99736505E-01
  1.83674306E-01 -3.41384877E-02  5.53625439E-01  6.39360024E-01  1.37595857E-01
 -2.55741513E-02  4.14737197E-01  3.55443548E-01  3.47685097E-01  4.20416836E-01
 -2.58701956E-03  4.19538162E-02 -7.79771472E-03  6.58292049E-01  1.00000000E+00
  4.17718050E-19  9.59360797E-08  1.45736677E-07  3.92785593E-07 -3.63920098E-08
  1.70866992E-03  2.56704526E-03  6.91863168E-03 -6.41018704E-04  2.20976396E-02
  1.93680791E-02  5.22003286E-02 -4.83641688E-03  3.21174713E-06  2.19140367E-05
  4.12223594E-07  1.39377670E-05 -1.29134917E-06 -3.48040974E-06  2.80228739E-06
  1.65374664E-02  3.42564146E-03  3.24399926E-02 -1.76031341E-02  6.09005060E-02
  1.16286294E-02  1.10120296E-01 -5.97553264E-02  5.19377372E-02  5.19052635E-03
  4.91530239E-02 -2.66722401E-02  1.27550221E-03  3.39037296E-02  1.06234337E-02
  6.03511270E-03 -3.27487430E-03 -3.10122643E-02  4.23264901E-05  1.42092256E-02
  1.00000000E+00  1.39671923E-05  1.13719078E-03  8.12074609E-04  2.18868176E-03
 -2.02783731E-04  2.91712162E-02  3.07743778E-02  8.29422795E-02 -7.68469185E-03
  1.42504224E-01  1.09218302E-01  2.94362245E-01 -2.72729802E-02  2.68451279E-03
  1.12428576E-02  1.40342431E-03  6.37805413E-03 -5.90933610E-04 -1.59266845E-03
  1.65374664E-02  1.86459219E-01  2.43756695E-02  2.30831670E-01 -1.25257761E-01
  3.44232312E-01  5.10892948E-02  4.83803214E-01 -2.62529433E-01  3.05564972E-01
  2.84004135E-02  2.68945018E-01 -1.45939467E-01  8.52049326E-02  2.59360020E-01
  1.35100068E-01  3.22127698E-02 -1.74798347E-02 -1.65529789E-01  7.82351456E-03
  1.09454976E-01  2.19058872E-01  1.00000000E+00 -1.91942156E-05 -1.08987402E-03
 -3.19222688E-04 -2.11982363E-03  1.96403951E-04 -1.56526137E-02  2.61326484E-03
 -4.58154580E-02  4.24485171E-03 -3.34969858E-02  4.88743169E-02 -7.04808586E-02
  6.53012774E-03 -7.91246437E-04 -9.99361628E-03 -1.23575014E-03 -1.97796776E-03
  1.83260851E-04  1.41759964E-03 -3.42564146E-03 -2.43756695E-02  1.00972118E-01
 -3.43971319E-02  1.86651500E-02 -2.29842674E-02  2.28552736E-01 -3.36536996E-02
  1.82617362E-02 -6.29631673E-03  1.24199510E-01 -5.59866401E-03  3.03804118E-03
  5.41133086E-03 -4.46332796E-02 -2.16361238E-02  1.40125356E-01 -7.60371764E-02
  3.06350864E-02  1.72431258E-03  1.15954590E-02 -1.00447716E-16  2.76135994E-16
  1.00000000E+00 -5.17317364E-05 -2.93739930E-03 -2.11982363E-03 -5.24598868E-03
  5.29342672E-04 -4.21865056E-02 -4.58154580E-02 -1.03868255E-01  1.14406108E-02
 -9.02801798E-02 -7.04808586E-02 -1.14933036E-01  1.75998256E-02 -6.40378337E-03
 -2.26632900E-02 -3.33056070E-03 -1.39279578E-02  1.41759964E-03  3.47796029E-03
 -3.24399926E-02 -2.30831670E-01 -3.43971319E-02 -2.21128053E-01  1.76754437E-01
 -2.17655430E-01 -3.36536996E-02 -8.65858172E-02  1.72934206E-01 -5.96245902E-02
 -5.59866401E-03  7.17727363E-02  2.87695121E-02 -1.17442828E-01 -2.53979501E-01
 -2.04888837E-01 -4.10292715E-02  3.06350864E-02  2.10834606E-01 -1.00462615E-02
 -6.75579447E-02 -1.51485551E-16  8.31920831E-17  1.43275581E-31  1.00000000E+00
  4.79300129E-06  2.72153220E-04  1.96403951E-04  5.29342672E-04  4.18259067E-04
  3.90862535E-03  4.24485171E-03  1.14406108E-02  1.85523571E-02  8.36455625E-03
  6.53012774E-03  1.75998256E-02  7.33944452E-02  5.93317452E-04  2.49551306E-03
 -8.71546900E-05  1.41759964E-03  1.24111133E-03  3.34501006E-03  1.76031341E-02
  1.25257761E-01  1.86651500E-02  1.76754437E-01  8.69096864E-03  1.18107848E-01
  1.82617362E-02  1.72934206E-01  1.38266078E-01  3.23544974E-02  3.03804118E-03
  2.87695121E-02  1.09179328E-01  6.37288015E-02  2.29354302E-01  1.96445489E-02
  3.06350864E-02 -1.19702910E-03 -1.13355749E-02  1.34094114E-02  9.01740686E-02
  4.89445996E-19 -5.96347794E-17 -7.16377906E-32 -6.16253689E-32  1.00000000E+00
  4.65037502E-03  3.65546700E-02  1.19831424E-02  3.22966447E-02 -2.99231905E-03
  1.24852345E-01  7.66387879E-02  2.06554810E-01 -1.91375265E-02  3.03063575E-01
  1.80312861E-01  4.85974399E-01 -4.50260534E-02  4.64633757E-02  8.19001751E-02
  4.11588833E-02  2.64090581E-02 -2.44682778E-03 -6.59462475E-03  6.09005060E-02
  3.44232312E-01  2.29842674E-02  2.17655430E-01 -1.18107848E-01  5.63242196E-01
  5.57748567E-02  5.28174347E-01 -2.86606843E-01  5.74337092E-01  4.60113429E-02
  4.35716242E-01 -2.36435672E-01  2.44910412E-01  3.18838061E-01  2.66090557E-01
  1.36741015E-02 -7.42007083E-03 -7.02662686E-02  7.37621383E-02  2.61710410E-01
  1.84261053E-01  8.12273068E-01  0.00000000E+00  7.85391605E-17  6.59784459E-18
  1.00000000E+00 -5.74944193E-03 -3.92721559E-02  5.90344042E-03 -3.52821922E-02
  3.26893325E-03 -9.69525192E-02  6.19662473E-02 -1.60397542E-01  1.48610056E-02
 -1.27608318E-01  2.09888792E-01 -2.04624972E-01  1.89587249E-02 -3.04807470E-02
 -8.53406595E-02 -4.28878966E-02  1.43421938E-02 -1.32881976E-03  6.87165350E-03
 -1.16286294E-02 -5.10892948E-02  2.28552736E-01 -3.36536996E-02  1.82617362E-02
 -5.57748567E-02  5.57719110E-01 -5.23022755E-02  2.83811400E-02 -2.34436856E-02
  4.62767263E-01 -1.77853646E-02  9.65099351E-03 -2.32188348E-02 -5.21480011E-02
 -4.35208100E-02  1.35851380E-01 -7.37179594E-02  1.14924970E-02  2.00891756E-02
  4.33647917E-02 -1.83190993E-17  0.00000000E+00  5.69754058E-01  0.00000000E+00
  0.00000000E+00  0.00000000E+00  1.00000000E+00 -1.54957420E-02 -1.05845264E-01
 -3.52821922E-02 -7.60972989E-02  8.81034141E-03 -2.61303835E-01 -1.60397542E-01
 -3.10820028E-01  4.00529848E-02 -3.43926524E-01 -2.04624972E-01 -2.65688204E-01