Jobname.Temp
SP        U                             non-standard        
Number of atoms                            I               12
Charge                                     I                0
Multiplicity                               I                3
Number of electrons                        I              114
Number of alpha electrons                  I               58
Number of beta electrons                   I               56
Atomic numbers                             I   N=          12
          16           8           8           8           6           9
           9           9          29           7           8           7
Current cartesian coordinates              R   N=          36
  2.34312811E+00 -8.06761877E-01  1.41105850E+00  8.50773599E-01 -2.54871142E+00
 -3.29209188E-01  3.86165534E-01  1.09350892E+00  2.26037701E+00  3.94880951E+00
 -1.96858440E+00  3.29105253E+00  4.44274612E+00  9.95866771E-01 -7.80891527E-01
  3.03423875E+00  2.12798279E+00 -2.54374144E+00  6.05791394E+00 -5.86004071E-01
 -1.88156251E+00  5.70667054E+00  2.73295972E+00  5.28216246E-01 -2.38175412E+00
 -5.94545633E-01  4.54857078E-02 -7.45408139E+00  2.00747496E+00  1.65445522E-01
 -5.54360607E+00 -5.36474350E-01 -9.64402831E-01 -9.38218785E+00  2.82954362E+00
  6.89372090E-02
Nuclear charges                            R   N=          12
  1.60000000E+01  8.00000000E+00  8.00000000E+00  8.00000000E+00  6.00000000E+00
  9.00000000E+00  9.00000000E+00  9.00000000E+00  2.90000000E+01  7.00000000E+00
  8.00000000E+00  7.00000000E+00
Number of basis functions                  I              224
Number of contracted shells                I               64
Number of primitive shells                 I              156
Highest angular momentum                   I                2
Largest degree of contraction              I                6
Shell types                                I   N=          64
           0          -1          -1          -1          -1          -2
           0          -1          -1          -1          -2           0
          -1          -1          -1          -2           0          -1
          -1          -1          -2           0          -1          -1
          -1          -2           0          -1          -1          -1
          -2           0          -1          -1          -1          -2
           0          -1          -1          -1          -2           0
           0           0           1           1           1          -2
          -2           0          -1          -1          -1          -2
           0          -1          -1          -1          -2           0
          -1          -1          -1          -2
Number of primitives per shell             I   N=          64
           6           6           3           1           1           1
           6           3           1           1           1           6
           3           1           1           1           6           3
           1           1           1           6           3           1
           1           1           6           3           1           1
           1           6           3           1           1           1
           6           3           1           1           1           3
           4           1           3           1           1           4
           1           6           3           1           1           1
           6           3           1           1           1           6
           3           1           1           1
Shell to atom map                          I   N=          64
           1           1           1           1           1           1
           2           2           2           2           2           3
           3           3           3           3           4           4
           4           4           4           5           5           5
           5           5           6           6           6           6
           6           7           7           7           7           7
           8           8           8           8           8           9
           9           9           9           9           9           9
           9          10          10          10          10          10
          11          11          11          11          11          12
          12          12          12          12
Primitive exponents                        R   N=         156
  2.19171000E+04  3.30149000E+03  7.54146000E+02  2.12711000E+02  6.79896000E+01
  2.30515000E+01  4.23735000E+02  1.00710000E+02  3.21599000E+01  1.18079000E+01
  4.63110000E+00  1.87025000E+00  2.61584000E+00  9.22167000E-01  3.41287000E-01
  1.17167000E-01  4.05000000E-02  6.50000000E-01  5.48467170E+03  8.25234950E+02
  1.88046960E+02  5.29645000E+01  1.68975700E+01  5.79963530E+00  1.55396160E+01
  3.59993360E+00  1.01376180E+00  2.70005800E-01  8.45000000E-02  8.00000000E-01
  5.48467170E+03  8.25234950E+02  1.88046960E+02  5.29645000E+01  1.68975700E+01
  5.79963530E+00  1.55396160E+01  3.59993360E+00  1.01376180E+00  2.70005800E-01
  8.45000000E-02  8.00000000E-01  5.48467170E+03  8.25234950E+02  1.88046960E+02
  5.29645000E+01  1.68975700E+01  5.79963530E+00  1.55396160E+01  3.59993360E+00
  1.01376180E+00  2.70005800E-01  8.45000000E-02  8.00000000E-01  3.04752490E+03
  4.57369510E+02  1.03948690E+02  2.92101550E+01  9.28666300E+00  3.16392700E+00
  7.86827240E+00  1.88128850E+00  5.44249300E-01  1.68714400E-01  4.38000000E-02
  8.00000000E-01  7.00171309E+03  1.05136609E+03  2.39285690E+02  6.73974453E+01
  2.15199573E+01  7.40310130E+00  2.08479528E+01  4.80830834E+00  1.34406986E+00
  3.58151390E-01  1.07600000E-01  8.00000000E-01  7.00171309E+03  1.05136609E+03
  2.39285690E+02  6.73974453E+01  2.15199573E+01  7.40310130E+00  2.08479528E+01
  4.80830834E+00  1.34406986E+00  3.58151390E-01  1.07600000E-01  8.00000000E-01
  7.00171309E+03  1.05136609E+03  2.39285690E+02  6.73974453E+01  2.15199573E+01
  7.40310130E+00  2.08479528E+01  4.80830834E+00  1.34406986E+00  3.58151390E-01
  1.07600000E-01  8.00000000E-01  8.17600000E+00  2.56800000E+00  9.58700000E-01
  8.17600000E+00  2.56800000E+00  9.58700000E-01  1.15300000E-01  3.96000000E-02
  2.56300000E+01  3.16600000E+00  1.02300000E+00  8.60000000E-02  2.40000000E-02
  4.13400000E+01  1.14200000E+01  3.83900000E+00  1.23000000E+00  3.10200000E-01
  4.17351100E+03  6.27457900E+02  1.42902100E+02  4.02343300E+01  1.28202100E+01
  4.39043700E+00  1.16263580E+01  2.71628000E+00  7.72218000E-01  2.12031300E-01
  6.39000000E-02  8.00000000E-01  5.48467170E+03  8.25234950E+02  1.88046960E+02
  5.29645000E+01  1.68975700E+01  5.79963530E+00  1.55396160E+01  3.59993360E+00
  1.01376180E+00  2.70005800E-01  8.45000000E-02  8.00000000E-01  4.17351100E+03
  6.27457900E+02  1.42902100E+02  4.02343300E+01  1.28202100E+01  4.39043700E+00
  1.16263580E+01  2.71628000E+00  7.72218000E-01  2.12031300E-01  6.39000000E-02
  8.00000000E-01
Contraction coefficients                   R   N=         156
  1.86900121E-03  1.42300092E-02  6.96960451E-02  2.38487154E-01  4.83307312E-01
  3.38074219E-01 -2.37670050E-03 -3.16930066E-02 -1.13317024E-01  5.60900117E-02
  5.92255123E-01  4.55006095E-01 -2.50373114E-01  6.69567631E-02  1.05450627E+00
  1.00000000E+00  1.00000000E+00  1.00000000E+00  1.83109981E-03  1.39500985E-02
  6.84450927E-02  2.32714275E-01  4.70192950E-01  3.58520862E-01 -1.10777504E-01
 -1.48026305E-01  1.13076704E+00  1.00000000E+00  1.00000000E+00  1.00000000E+00
  1.83109981E-03  1.39500985E-02  6.84450927E-02  2.32714275E-01  4.70192950E-01
  3.58520862E-01 -1.10777504E-01 -1.48026305E-01  1.13076704E+00  1.00000000E+00
  1.00000000E+00  1.00000000E+00  1.83109981E-03  1.39500985E-02  6.84450927E-02
  2.32714275E-01  4.70192950E-01  3.58520862E-01 -1.10777504E-01 -1.48026305E-01
  1.13076704E+00  1.00000000E+00  1.00000000E+00  1.00000000E+00  1.83470016E-03
  1.40373012E-02  6.88426061E-02  2.32184421E-01  4.67941342E-01  3.62312032E-01
 -1.19332409E-01 -1.60854212E-01  1.14345648E+00  1.00000000E+00  1.00000000E+00
  1.00000000E+00  1.81962000E-03  1.39160800E-02  6.84053199E-02  2.33185760E-01
  4.71267439E-01  3.56618549E-01 -1.08506980E-01 -1.46451660E-01  1.12868858E+00
  1.00000000E+00  1.00000000E+00  1.00000000E+00  1.81962000E-03  1.39160800E-02
  6.84053199E-02  2.33185760E-01  4.71267439E-01  3.56618549E-01 -1.08506980E-01
 -1.46451660E-01  1.12868858E+00  1.00000000E+00  1.00000000E+00  1.00000000E+00
  1.81962000E-03  1.39160800E-02  6.84053199E-02  2.33185760E-01  4.71267439E-01
  3.56618549E-01 -1.08506980E-01 -1.46451660E-01  1.12868858E+00  1.00000000E+00
  1.00000000E+00  1.00000000E+00 -4.21025989E-01  7.38592381E-01  5.52569186E-01
  1.78766496E-01 -3.59227292E-01 -4.70482490E-01  1.08074068E+00  1.00000000E+00
 -4.89173002E-02  6.27285402E-01  4.71618802E-01  1.00000000E+00  1.00000000E+00
  4.65424016E-02  2.22782408E-01  4.53905916E-01  5.31476918E-01  1.00000000E+00
  1.83479944E-03  1.39949958E-02  6.85869792E-02  2.32240930E-01  4.69069858E-01
  3.60454891E-01 -1.14961023E-01 -1.69118034E-01  1.14585223E+00  1.00000000E+00
  1.00000000E+00  1.00000000E+00  1.83109981E-03  1.39500985E-02  6.84450927E-02
  2.32714275E-01  4.70192950E-01  3.58520862E-01 -1.10777504E-01 -1.48026305E-01
  1.13076704E+00  1.00000000E+00  1.00000000E+00  1.00000000E+00  1.83479944E-03
  1.39949958E-02  6.85869792E-02  2.32240930E-01  4.69069858E-01  3.60454891E-01
 -1.14961023E-01 -1.69118034E-01  1.14585223E+00  1.00000000E+00  1.00000000E+00
  1.00000000E+00
P(S=P) Contraction coefficients            R   N=         156
  0.00000000E+00  0.00000000E+00  0.00000000E+00  0.00000000E+00  0.00000000E+00
  0.00000000E+00  4.06100032E-03  3.06810024E-02  1.30452010E-01  3.27205026E-01
  4.52851036E-01  2.56042020E-01 -1.45109929E-02  3.10262847E-01  7.54482628E-01
  1.00000000E+00  1.00000000E+00  0.00000000E+00  0.00000000E+00  0.00000000E+00
  0.00000000E+00  0.00000000E+00  0.00000000E+00  0.00000000E+00  7.08742995E-02
  3.39752798E-01  7.27158595E-01  1.00000000E+00  1.00000000E+00  0.00000000E+00
  0.00000000E+00  0.00000000E+00  0.00000000E+00  0.00000000E+00  0.00000000E+00
  0.00000000E+00  7.08742995E-02  3.39752798E-01  7.27158595E-01  1.00000000E+00
  1.00000000E+00  0.00000000E+00  0.00000000E+00  0.00000000E+00  0.00000000E+00
  0.00000000E+00  0.00000000E+00  0.00000000E+00  7.08742995E-02  3.39752798E-01
  7.27158595E-01  1.00000000E+00  1.00000000E+00  0.00000000E+00  0.00000000E+00
  0.00000000E+00  0.00000000E+00  0.00000000E+00  0.00000000E+00  0.00000000E+00
  6.89990956E-02  3.16423980E-01  7.44308252E-01  1.00000000E+00  1.00000000E+00
  0.00000000E+00  0.00000000E+00  0.00000000E+00  0.00000000E+00  0.00000000E+00
  0.00000000E+00  0.00000000E+00  7.16287200E-02  3.45912100E-01  7.22469960E-01
  1.00000000E+00  1.00000000E+00  0.00000000E+00  0.00000000E+00  0.00000000E+00
  0.00000000E+00  0.00000000E+00  0.00000000E+00  0.00000000E+00  7.16287200E-02
  3.45912100E-01  7.22469960E-01  1.00000000E+00  1.00000000E+00  0.00000000E+00
  0.00000000E+00  0.00000000E+00  0.00000000E+00  0.00000000E+00  0.00000000E+00
  0.00000000E+00  7.16287200E-02  3.45912100E-01  7.22469960E-01  1.00000000E+00
  1.00000000E+00  0.00000000E+00  0.00000000E+00  0.00000000E+00  0.00000000E+00
  0.00000000E+00  0.00000000E+00  0.00000000E+00  0.00000000E+00  0.00000000E+00
  0.00000000E+00  0.00000000E+00  0.00000000E+00  0.00000000E+00  0.00000000E+00
  0.00000000E+00  0.00000000E+00  0.00000000E+00  0.00000000E+00  0.00000000E+00
  0.00000000E+00  0.00000000E+00  0.00000000E+00  0.00000000E+00  0.00000000E+00
  0.00000000E+00  6.75800232E-02  3.23907111E-01  7.40895255E-01  1.00000000E+00
  1.00000000E+00  0.00000000E+00  0.00000000E+00  0.00000000E+00  0.00000000E+00
  0.00000000E+00  0.00000000E+00  0.00000000E+00  7.08742995E-02  3.39752798E-01
  7.27158595E-01  1.00000000E+00  1.00000000E+00  0.00000000E+00  0.00000000E+00
  0.00000000E+00  0.00000000E+00  0.00000000E+00  0.00000000E+00  0.00000000E+00
  6.75800232E-02  3.23907111E-01  7.40895255E-01  1.00000000E+00  1.00000000E+00
  0.00000000E+00
Coordinates of each shell                  R   N=         192
  2.34312811E+00 -8.06761877E-01  1.41105850E+00  2.34312811E+00 -8.06761877E-01
  1.41105850E+00  2.34312811E+00 -8.06761877E-01  1.41105850E+00  2.34312811E+00
 -8.06761877E-01  1.41105850E+00  2.34312811E+00 -8.06761877E-01  1.41105850E+00
  2.34312811E+00 -8.06761877E-01  1.41105850E+00  8.50773599E-01 -2.54871142E+00
 -3.29209188E-01  8.50773599E-01 -2.54871142E+00 -3.29209188E-01  8.50773599E-01
 -2.54871142E+00 -3.29209188E-01  8.50773599E-01 -2.54871142E+00 -3.29209188E-01
  8.50773599E-01 -2.54871142E+00 -3.29209188E-01  3.86165534E-01  1.09350892E+00
  2.26037701E+00  3.86165534E-01  1.09350892E+00  2.26037701E+00  3.86165534E-01
  1.09350892E+00  2.26037701E+00  3.86165534E-01  1.09350892E+00  2.26037701E+00
  3.86165534E-01  1.09350892E+00  2.26037701E+00  3.94880951E+00 -1.96858440E+00
  3.29105253E+00  3.94880951E+00 -1.96858440E+00  3.29105253E+00  3.94880951E+00
 -1.96858440E+00  3.29105253E+00  3.94880951E+00 -1.96858440E+00  3.29105253E+00
  3.94880951E+00 -1.96858440E+00  3.29105253E+00  4.44274612E+00  9.95866771E-01
 -7.80891527E-01  4.44274612E+00  9.95866771E-01 -7.80891527E-01  4.44274612E+00
  9.95866771E-01 -7.80891527E-01  4.44274612E+00  9.95866771E-01 -7.80891527E-01
  4.44274612E+00  9.95866771E-01 -7.80891527E-01  3.03423875E+00  2.12798279E+00
 -2.54374144E+00  3.03423875E+00  2.12798279E+00 -2.54374144E+00  3.03423875E+00
  2.12798279E+00 -2.54374144E+00  3.03423875E+00  2.12798279E+00 -2.54374144E+00
  3.03423875E+00  2.12798279E+00 -2.54374144E+00  6.05791394E+00 -5.86004071E-01
 -1.88156251E+00  6.05791394E+00 -5.86004071E-01 -1.88156251E+00  6.05791394E+00
 -5.86004071E-01 -1.88156251E+00  6.05791394E+00 -5.86004071E-01 -1.88156251E+00
  6.05791394E+00 -5.86004071E-01 -1.88156251E+00  5.70667054E+00  2.73295972E+00
  5.28216246E-01  5.70667054E+00  2.73295972E+00  5.28216246E-01  5.70667054E+00
  2.73295972E+00  5.28216246E-01  5.70667054E+00  2.73295972E+00  5.28216246E-01
  5.70667054E+00  2.73295972E+00  5.28216246E-01 -2.38175412E+00 -5.94545633E-01
  4.54857078E-02 -2.38175412E+00 -5.94545633E-01  4.54857078E-02 -2.38175412E+00
 -5.94545633E-01  4.54857078E-02 -2.38175412E+00 -5.94545633E-01  4.54857078E-02
 -2.38175412E+00 -5.94545633E-01  4.54857078E-02 -2.38175412E+00 -5.94545633E-01
  4.54857078E-02 -2.38175412E+00 -5.94545633E-01  4.54857078E-02 -2.38175412E+00
 -5.94545633E-01  4.54857078E-02 -7.45408139E+00  2.00747496E+00  1.65445522E-01
 -7.45408139E+00  2.00747496E+00  1.65445522E-01 -7.45408139E+00  2.00747496E+00
  1.65445522E-01 -7.45408139E+00  2.00747496E+00  1.65445522E-01 -7.45408139E+00
  2.00747496E+00  1.65445522E-01 -5.54360607E+00 -5.36474350E-01 -9.64402831E-01
 -5.54360607E+00 -5.36474350E-01 -9.64402831E-01 -5.54360607E+00 -5.36474350E-01
 -9.64402831E-01 -5.54360607E+00 -5.36474350E-01 -9.64402831E-01 -5.54360607E+00
 -5.36474350E-01 -9.64402831E-01 -9.38218785E+00  2.82954362E+00  6.89372090E-02
 -9.38218785E+00  2.82954362E+00  6.89372090E-02 -9.38218785E+00  2.82954362E+00
  6.89372090E-02 -9.38218785E+00  2.82954362E+00  6.89372090E-02 -9.38218785E+00
  2.82954362E+00  6.89372090E-02
Overlap Matrix                             R   N=       25200
  1.00000000E+00  2.62729640E-01  1.00000000E+00  4.50569117E-16 -3.38664209E-16
  1.00000000E+00 -1.62224415E-16 -2.11811344E-17 -3.87834183E-31  1.00000000E+00
 -1.73231773E-17 -3.50657915E-16  5.92647373E-31 -1.67199146E-31  1.00000000E+00
  1.02304916E-02  3.22819433E-01  1.59221185E-16  3.75825972E-18 -1.70516939E-17
  1.00000000E+00  1.57385594E-17 -1.85465614E-16  3.10508414E-01 -4.11981283E-32
  3.77344168E-32  3.79356993E-17  1.00000000E+00 -3.81505180E-18  2.18359869E-17
 -4.11981283E-32  3.10508414E-01  8.83445069E-35  0.00000000E+00  0.00000000E+00
  1.00000000E+00  6.57809351E-18 -5.77403948E-17  3.77344168E-32  8.83445069E-35
  3.10508414E-01  5.74103130E-19 -2.26897778E-33  0.00000000E+00  1.00000000E+00
  3.23138907E-02  2.49081598E-01 -1.23550197E-16  6.82854366E-17 -1.68821584E-16
  8.28320586E-01  0.00000000E+00  0.00000000E+00 -2.68762814E-18  1.00000000E+00
  8.33810205E-20 -4.34559062E-17  6.96293228E-02 -1.01298254E-32  1.52853150E-32
  0.00000000E+00  6.33490366E-01  0.00000000E+00  0.00000000E+00  3.04020502E-16
  1.00000000E+00 -2.22517606E-20  1.86436453E-17 -1.01298254E-32  6.96293228E-02
 -9.50619098E-33  0.00000000E+00  0.00000000E+00  6.33490366E-01  0.00000000E+00
  0.00000000E+00  0.00000000E+00  1.00000000E+00  1.79754296E-18 -3.86693934E-17
  1.52853150E-32 -9.50619098E-33  6.96293228E-02 -9.81424307E-18  0.00000000E+00
  0.00000000E+00  6.33490366E-01  0.00000000E+00  0.00000000E+00  0.00000000E+00
  1.00000000E+00  1.46172057E-02  1.17472351E-01  5.67027787E-17  9.90612470E-18
 -1.98122494E-17  4.96335175E-01  1.91743033E-16 -4.79357583E-17  9.46070944E-17
  8.16825030E-01  0.00000000E+00  0.00000000E+00  0.00000000E+00  1.00000000E+00
  2.21027121E-20  8.83382639E-18  1.98155464E-02  0.00000000E+00  0.00000000E+00
  9.65297889E-17  2.55849977E-01 -8.34214939E-33  1.69103047E-32  0.00000000E+00
  7.13753738E-01  0.00000000E+00  0.00000000E+00  0.00000000E+00  1.00000000E+00
 -5.51383875E-21  1.00251073E-19  0.00000000E+00  1.98155464E-02 -8.94392421E-34
 -2.41324472E-17 -8.34214939E-33  2.55849977E-01 -4.22757617E-33  0.00000000E+00
  0.00000000E+00  7.13753738E-01  0.00000000E+00 -4.46856148E-17  0.00000000E+00
  1.00000000E+00 -2.54975667E-19 -2.00502147E-19  0.00000000E+00 -8.94392421E-34
  1.98155464E-02  4.55503024E-17  1.69103047E-32 -4.22757617E-33  2.55849977E-01
  0.00000000E+00  0.00000000E+00  0.00000000E+00  7.13753738E-01  0.00000000E+00
  0.00000000E+00  0.00000000E+00  1.00000000E+00  0.00000000E+00  0.00000000E+00
  1.78458258E-17 -2.03197174E-17  6.01692946E-17  0.00000000E+00  0.00000000E+00
 -6.86441231E-17  0.00000000E+00  0.00000000E+00  1.81507597E-16 -4.53768993E-17
 -1.81507597E-16  0.00000000E+00  0.00000000E+00  0.00000000E+00 -6.25925326E-17
  1.00000000E+00  0.00000000E+00  4.26541778E-33  5.21081377E-17  1.89855232E-47
 -3.09098771E-17  0.00000000E+00  0.00000000E+00  0.00000000E+00  0.00000000E+00
  1.56452648E-31 -1.57190190E-16  1.18912032E-47 -3.14380380E-16  0.00000000E+00
 -5.42067234E-17  0.00000000E+00  0.00000000E+00  0.00000000E+00  1.00000000E+00
  0.00000000E+00  2.27621389E-36  1.89855232E-47  5.21081377E-17  3.51947830E-17
  0.00000000E+00  0.00000000E+00  0.00000000E+00  1.18895109E-16 -3.91131620E-32
  1.18912032E-47 -1.57190190E-16  7.85950950E-17  0.00000000E+00  0.00000000E+00
 -5.42067234E-17  0.00000000E+00  0.00000000E+00  0.00000000E+00  1.00000000E+00
  0.00000000E+00  0.00000000E+00 -3.09098771E-17 -3.51947830E-17  0.00000000E+00
  0.00000000E+00  0.00000000E+00 -1.18895109E-16  0.00000000E+00  0.00000000E+00
 -3.14380380E-16 -7.85950950E-17  0.00000000E+00  0.00000000E+00  0.00000000E+00
  0.00000000E+00  0.00000000E+00  0.00000000E+00  0.00000000E+00  0.00000000E+00
  1.00000000E+00  0.00000000E+00 -2.13270889E-33  3.51947830E-17 -3.09098771E-17
  1.89855232E-47  0.00000000E+00  1.18895109E-16  0.00000000E+00  0.00000000E+00
 -7.82263241E-32  7.85950950E-17 -3.14380380E-16  1.18912032E-47  0.00000000E+00
  0.00000000E+00  0.00000000E+00  0.00000000E+00  0.00000000E+00  0.00000000E+00
  0.00000000E+00  0.00000000E+00  1.00000000E+00  1.80809271E-18  1.14535343E-06
 -2.02168291E-06 -2.35980766E-06 -2.35752926E-06  1.37383079E-02 -1.67380450E-02
 -1.95374688E-02 -1.95186053E-02  3.52531468E-02 -3.55141339E-02 -4.14538427E-02
 -4.14138189E-02  3.00620232E-02 -1.79689675E-02 -2.09742620E-02 -2.09540113E-02
  1.04889075E-03  1.18615052E-02  1.38453319E-02 -1.84348038E-03  1.18729686E-02
  1.00000000E+00  5.09845981E-05  2.51926864E-03 -2.12074345E-03 -2.47543600E-03
 -2.47304596E-03  1.10845904E-01 -1.10718191E-01 -1.29235715E-01 -1.29110937E-01
  2.10301930E-01 -1.91420717E-01 -2.23435670E-01 -2.23219942E-01  1.82351689E-01
 -1.05101178E-01 -1.22679261E-01 -1.22560814E-01  8.57355079E-03  9.69550141E-02
  1.13170658E-01 -1.50684642E-02  9.70487148E-02  2.33689906E-01  1.00000000E+00
  9.55062849E-05  3.32263118E-03 -1.92972575E-03 -3.31697211E-03 -3.31376956E-03
  6.28451582E-02 -1.32365019E-02 -8.00829471E-02 -8.00056269E-02  5.01611629E-02
  5.18808622E-02 -5.40610784E-02 -5.40088823E-02  1.60123127E-02  4.40418642E-02
 -1.08247954E-02 -1.08143440E-02  3.12669143E-02  3.90716132E-02  1.01239009E-01
 -5.43514716E-02  3.91093733E-02  3.31010843E-18 -7.01149775E-17  1.00000000E+00
  1.11479630E-04  3.87833842E-03 -3.31697211E-03 -2.95975847E-03 -3.86799471E-03
  7.33559576E-02 -8.00829471E-02 -3.81049821E-02 -9.33865001E-02  5.85505749E-02
 -5.40610784E-02  3.50930577E-02 -6.30418221E-02  1.86903584E-02 -1.08247954E-02
  4.06803969E-02 -1.26230338E-02  3.64962792E-02  1.01239009E-01  7.05097707E-02
  3.19731687E-02  6.04651661E-02  4.44632593E-16  4.87896912E-16 -7.01442793E-32
  1.00000000E+00  1.11371996E-04  3.87459388E-03 -3.31376956E-03 -3.86799471E-03
 -2.95228574E-03  7.32851323E-02 -8.00056269E-02 -9.33865001E-02 -3.79245652E-02
  5.84940442E-02 -5.40088823E-02 -6.30418221E-02  3.52148506E-02  1.86723128E-02
 -1.08143440E-02 -1.26230338E-02  4.07047838E-02 -4.60908850E-02  6.02695786E-02
  7.03496145E-02 -1.57190788E-02  1.01239009E-01  8.84934412E-18 -7.12409594E-18
 -1.49035095E-32  0.00000000E+00  1.00000000E+00  6.51662372E-03  5.67848414E-02
 -1.75643754E-02 -2.05020023E-02 -2.04822076E-02  2.93575914E-01 -1.91758895E-01
 -2.23830408E-01 -2.23614299E-01  4.47342904E-01 -3.18723042E-01 -3.72029200E-01
 -3.71670005E-01  4.12826239E-01 -2.15625530E-01 -2.51688717E-01 -2.51445711E-01
  9.19349007E-03  1.03965671E-01  1.21353841E-01 -1.61580400E-02  1.04066147E-01
  1.67279760E-01  7.63640773E-01  1.19628448E-16  0.00000000E+00  4.09158856E-18
  1.00000000E+00  1.00258316E-02  7.93516502E-02 -2.05834864E-03 -2.88411614E-02
 -2.88133152E-02  2.49332304E-01  7.23355655E-02 -2.04209044E-01 -2.04011880E-01
  2.09956619E-01  2.61422416E-01 -1.74608767E-01 -1.74440182E-01  8.35105118E-02
  2.34443160E-01 -5.09140447E-02 -5.08648871E-02  7.64521559E-02 -2.01495917E-02
  1.32973428E-01 -1.32675915E-01 -2.01690649E-02  1.09530719E-17  9.60057074E-17
  5.01520641E-01  0.00000000E+00  0.00000000E+00  0.00000000E+00  1.00000000E+00
  1.17026434E-02  9.26231464E-02 -2.88411614E-02 -1.10145107E-02 -3.36323178E-02
  2.91032920E-01 -2.04209044E-01  8.92170836E-03 -2.38132693E-01  2.45071685E-01
 -1.74608767E-01  2.07200452E-01 -2.03615154E-01  9.74775740E-02 -5.09140447E-02
  2.18632616E-01 -5.93719963E-02  8.92387141E-02  1.32973428E-01  2.11431827E-02
  1.13533168E-01  1.81311901E-02 -2.11850475E-17  0.00000000E+00  0.00000000E+00
  5.01520641E-01  0.00000000E+00  0.00000000E+00  0.00000000E+00  1.00000000E+00
  1.16913445E-02  9.25337186E-02 -2.88133152E-02 -3.36323178E-02 -1.09495352E-02
  2.90751927E-01 -2.04011880E-01 -2.38132693E-01  9.38176588E-03  2.44835068E-01
 -1.74440182E-01 -2.03615154E-01  2.07593824E-01  9.73834592E-02 -5.08648871E-02
 -5.93719963E-02  2.18747319E-01 -1.43063391E-01  1.78742937E-02  2.08637542E-02
 -2.06463872E-02  1.32973428E-01  7.18941300E-19 -8.42987540E-19  0.00000000E+00
  0.00000000E+00  5.01520641E-01  0.00000000E+00  0.00000000E+00  0.00000000E+00
  1.00000000E+00  1.25921485E-02  1.00922330E-01 -1.04940299E-02 -1.22491474E-02
 -1.22373209E-02  4.16942403E-01 -1.22087344E-01 -1.42506349E-01 -1.42368759E-01
  6.52507748E-01 -2.79326538E-01 -3.26043665E-01 -3.25728869E-01  7.21679266E-01
 -2.93035634E-01 -3.42045595E-01 -3.41715350E-01  2.16740012E-03  2.45103009E-02
  2.86096279E-02 -3.80931915E-03  2.45339885E-02  7.23158236E-02  4.09528899E-01
  0.00000000E+00 -9.37913518E-17  0.00000000E+00  7.86651414E-01  0.00000000E+00
  0.00000000E+00  0.00000000E+00  1.00000000E+00  1.08977135E-02  8.46577034E-02
  1.53712829E-02 -1.02940346E-02 -1.02840957E-02  2.87617955E-01  1.94946615E-01
 -1.00947580E-01 -1.00850115E-01  3.28917136E-01  5.03086875E-01 -1.64352605E-01
 -1.64193922E-01  2.02870824E-01  5.93116722E-01 -9.61522312E-02 -9.60593960E-02
  2.96374381E-02 -3.76808049E-02  2.19666647E-02 -5.13759867E-02 -3.77172210E-02
  1.94053061E-18  0.00000000E+00  1.68056960E-01  0.00000000E+00  0.00000000E+00
  0.00000000E+00  6.70353497E-01  0.00000000E+00  0.00000000E+00  6.45458880E-17
  1.00000000E+00  1.27203468E-02  9.88166325E-02 -1.02940346E-02  1.21746349E-02
 -1.20041020E-02  3.35721814E-01 -1.00947580E-01  1.63598957E-01 -1.17717211E-01
  3.83928247E-01 -1.64352605E-01  4.52049799E-01 -1.91655217E-01  2.36800797E-01
 -9.61522312E-02  5.63258183E-01 -1.12125248E-01  3.45942744E-02  2.19666647E-02
 -3.08594080E-02  5.31405876E-02 -2.64632719E-02 -7.76212243E-18  6.26065485E-18
  0.00000000E+00  1.68056960E-01  0.00000000E+00  0.00000000E+00  0.00000000E+00
  6.70353497E-01  0.00000000E+00 -2.58183552E-16 -1.66646866E-32  1.00000000E+00
  1.27080653E-02  9.87212248E-02 -1.02840957E-02 -1.20041020E-02  1.21978261E-02
  3.35397674E-01 -1.00850115E-01 -1.17717211E-01  1.63826379E-01  3.83557564E-01
 -1.64193922E-01 -1.91655217E-01  4.52420065E-01  2.36572165E-01 -9.60593960E-02
 -1.12125248E-01  5.63474802E-01 -6.32999602E-02 -2.65057101E-02 -3.09387676E-02
 -3.41069844E-03  2.19666647E-02 -8.01136936E-19  0.00000000E+00  0.00000000E+00
  0.00000000E+00  1.68056960E-01  0.00000000E+00  0.00000000E+00  0.00000000E+00
  6.70353497E-01 -3.22729440E-17 -2.08308583E-33  8.33234331E-33  1.00000000E+00
  1.42789520E-04  2.04438587E-03 -4.72234358E-03 -5.51215154E-03  5.64897968E-03
  8.23611793E-03 -5.53888839E-02 -6.46526278E-02  9.50315516E-02  2.80405718E-03
 -3.32326668E-02 -3.87908022E-02  6.87649489E-02  3.47474887E-04 -6.67647613E-03
 -7.79311109E-03  1.48761965E-02 -1.56966735E-01 -3.85824025E-02 -4.50352766E-02
 -1.91738285E-02  1.23489388E-01  0.00000000E+00  0.00000000E+00 -1.02293313E-16
  8.14400261E-17  0.00000000E+00  0.00000000E+00  8.06516212E-17  0.00000000E+00
  8.06516212E-17  0.00000000E+00  0.00000000E+00 -1.21548149E-16  3.03870372E-17
  1.00000000E+00  1.61475220E-03  2.31191796E-02 -1.09007447E-02 -2.02419144E-02
 -1.46990992E-02  9.31391147E-02 -1.82299747E-02 -1.28849878E-01 -4.96963057E-02
  3.17100126E-02  3.38176395E-02 -3.29842188E-02  2.02802306E-02  3.92946090E-03
  1.08372436E-02 -2.62227551E-03  8.60016710E-03 -3.85824025E-02  3.51499543E-02
  1.09709453E-01 -1.20572797E-01  6.51995181E-02 -5.46853746E-34  0.00000000E+00
  0.00000000E+00  0.00000000E+00  1.77177216E-16 -1.59681112E-32  6.98463528E-17
  0.00000000E+00 -1.39692706E-16  0.00000000E+00  2.63159462E-17  0.00000000E+00
  0.00000000E+00  0.00000000E+00  1.00000000E+00  1.88481813E-03  2.69858428E-02
 -2.02419144E-02 -1.71865479E-02 -1.71575110E-02  1.08716553E-01 -1.28849878E-01
 -5.82422465E-02 -5.80079706E-02  3.70134853E-02 -3.29842188E-02  2.35749171E-02
  2.36720819E-02  4.58665990E-03 -2.62227551E-03  1.00229379E-02  1.00385377E-02
 -4.50352766E-02  1.09709453E-01  6.92184729E-02  7.75449279E-02  1.09996298E-01
  2.18741498E-33  0.00000000E+00  0.00000000E+00  0.00000000E+00 -1.41058263E-16
  0.00000000E+00  0.00000000E+00  6.98463528E-17  0.00000000E+00  3.55597495E-32
  0.00000000E+00  2.63159462E-17  2.10527569E-16  0.00000000E+00 -1.57772181E-31
  1.00000000E+00 -2.50960055E-04 -3.59311516E-03  8.21844513E-03 -3.30109507E-03
  3.14290161E-03 -1.44754083E-02  9.61852911E-02 -7.22212583E-02  2.00061359E-02
 -4.92827725E-03  5.76243909E-02 -5.70094001E-02  5.12136118E-03 -6.10705300E-04
  1.15690619E-02 -1.26888850E-02  4.07152890E-04 -1.91738285E-02 -1.20572797E-01
  7.75449279E-02 -1.35026750E-01 -2.70956031E-02  0.00000000E+00  0.00000000E+00
  1.77177216E-16  1.41058263E-16  0.00000000E+00  0.00000000E+00 -1.39692706E-16
  0.00000000E+00  0.00000000E+00  0.00000000E+00  0.00000000E+00 -2.10527569E-16
  0.00000000E+00  0.00000000E+00  0.00000000E+00  0.00000000E+00  1.00000000E+00
  1.61631275E-03  2.31415228E-02 -1.09112795E-02 -1.47382053E-02 -2.02419144E-02
  9.32291276E-02 -1.82475928E-02 -4.99452356E-02 -1.28849878E-01  3.17406583E-02
  3.38503221E-02  2.02165071E-02 -3.29842188E-02  3.93325847E-03  1.08477171E-02
  8.59510102E-03 -2.62227551E-03  1.23489388E-01  6.51995181E-02  1.09996298E-01
 -2.70956031E-02  3.52759157E-02 -4.40898115E-33  1.58228057E-32 -1.41058263E-16
  1.77177216E-16  0.00000000E+00  0.00000000E+00  0.00000000E+00 -1.39692706E-16
  0.00000000E+00  0.00000000E+00  2.10527569E-16  0.00000000E+00  0.00000000E+00
  1.82179622E-31  0.00000000E+00  0.00000000E+00  0.00000000E+00  1.00000000E+00
  3.27220706E-18  1.37669920E-06 -3.18832574E-06  3.09596226E-06  1.38372808E-06
  1.43284398E-02 -2.29174084E-02  2.22535077E-02  9.94611716E-03  3.57782186E-02
 -4.72642627E-02  4.58950514E-02  2.05126115E-02  3.02174663E-02 -2.36850057E-02
  2.29988683E-02  1.02792531E-02 -8.54142891E-03 -8.19906525E-03  7.96154429E-03
  5.39358186E-04 -1.83446423E-02  4.84497241E-27  7.38525368E-09 -3.82648109E-09
  2.99970842E-08  2.13276595E-08  8.53937034E-04 -3.98947699E-04  3.12748644E-03
  2.22361498E-03  1.33623681E-02 -3.57276802E-03  2.80081413E-02  1.99135388E-02
 -8.17315583E-09 -4.88610775E-07  3.83038573E-06 -2.64986281E-06 -6.87224895E-07
  1.00000000E+00  5.78165191E-05  2.75142271E-03 -3.04056673E-03  2.95248372E-03
  1.31960091E-03  1.14482789E-01 -1.50298460E-01  1.45944423E-01  6.52292819E-02
  2.13130026E-01 -2.54388508E-01  2.47019057E-01  1.10404190E-01  1.83260797E-01
 -1.38508916E-01  1.34496414E-01  6.01126397E-02 -6.79167368E-02 -6.51944497E-02
  6.33058138E-02  4.28867914E-03 -1.45866489E-01  7.38525368E-09  4.59684691E-05
 -1.38433576E-05  1.08522779E-04  7.71587289E-05  1.08344006E-02 -4.10165662E-03
  3.21542786E-02  2.28614055E-02  8.53992142E-02 -2.12037673E-02  1.66223530E-01
  1.18183448E-01 -2.69671439E-06 -1.61216027E-04  1.26382716E-03 -8.74316277E-04