Jobname.Temp
SP        U                             non-standard        
Number of atoms                            I               12
Charge                                     I                0
Multiplicity                               I                3
Number of electrons                        I              114
Number of alpha electrons                  I               58
Number of beta electrons                   I               56
Atomic numbers                             I   N=          12
          16           8           8           8           6           9
           9           9          29           7           8           7
Current cartesian coordinates              R   N=          36
  2.23358983E+00 -1.02118375E+00  1.06566871E+00  5.05508176E-01 -2.43972028E+00
 -7.35364629E-01  3.75878851E-01  2.02027707E-01  2.88239511E+00  4.37919431E+00
 -2.34604155E+00  2.11220126E+00  3.51465685E+00  1.65700544E+00 -8.48884973E-01
  1.60603535E+00  2.96067148E+00 -1.86345431E+00  4.97095516E+00  7.34752585E-01
 -2.67846533E+00  4.86417887E+00  3.16398631E+00  6.43106726E-01 -2.68328323E+00
 -1.30122294E+00  1.10743043E+00 -4.23066916E+00  2.84132114E+00 -2.00789883E+00
 -5.97789094E+00 -1.73357284E+00  1.27028703E+00 -5.23908821E+00  4.28038656E+00
 -3.13346540E+00
Nuclear charges                            R   N=          12
  1.60000000E+01  8.00000000E+00  8.00000000E+00  8.00000000E+00  6.00000000E+00
  9.00000000E+00  9.00000000E+00  9.00000000E+00  2.90000000E+01  7.00000000E+00
  8.00000000E+00  7.00000000E+00
Number of basis functions                  I              224
Number of contracted shells                I               64
Number of primitive shells                 I              156
Highest angular momentum                   I                2
Largest degree of contraction              I                6
Shell types                                I   N=          64
           0          -1          -1          -1          -1          -2
           0          -1          -1          -1          -2           0
          -1          -1          -1          -2           0          -1
          -1          -1          -2           0          -1          -1
          -1          -2           0          -1          -1          -1
          -2           0          -1          -1          -1          -2
           0          -1          -1          -1          -2           0
           0           0           1           1           1          -2
          -2           0          -1          -1          -1          -2
           0          -1          -1          -1          -2           0
          -1          -1          -1          -2
Number of primitives per shell             I   N=          64
           6           6           3           1           1           1
           6           3           1           1           1           6
           3           1           1           1           6           3
           1           1           1           6           3           1
           1           1           6           3           1           1
           1           6           3           1           1           1
           6           3           1           1           1           3
           4           1           3           1           1           4
           1           6           3           1           1           1
           6           3           1           1           1           6
           3           1           1           1
Shell to atom map                          I   N=          64
           1           1           1           1           1           1
           2           2           2           2           2           3
           3           3           3           3           4           4
           4           4           4           5           5           5
           5           5           6           6           6           6
           6           7           7           7           7           7
           8           8           8           8           8           9
           9           9           9           9           9           9
           9          10          10          10          10          10
          11          11          11          11          11          12
          12          12          12          12
Primitive exponents                        R   N=         156
  2.19171000E+04  3.30149000E+03  7.54146000E+02  2.12711000E+02  6.79896000E+01
  2.30515000E+01  4.23735000E+02  1.00710000E+02  3.21599000E+01  1.18079000E+01
  4.63110000E+00  1.87025000E+00  2.61584000E+00  9.22167000E-01  3.41287000E-01
  1.17167000E-01  4.05000000E-02  6.50000000E-01  5.48467170E+03  8.25234950E+02
  1.88046960E+02  5.29645000E+01  1.68975700E+01  5.79963530E+00  1.55396160E+01
  3.59993360E+00  1.01376180E+00  2.70005800E-01  8.45000000E-02  8.00000000E-01
  5.48467170E+03  8.25234950E+02  1.88046960E+02  5.29645000E+01  1.68975700E+01
  5.79963530E+00  1.55396160E+01  3.59993360E+00  1.01376180E+00  2.70005800E-01
  8.45000000E-02  8.00000000E-01  5.48467170E+03  8.25234950E+02  1.88046960E+02
  5.29645000E+01  1.68975700E+01  5.79963530E+00  1.55396160E+01  3.59993360E+00
  1.01376180E+00  2.70005800E-01  8.45000000E-02  8.00000000E-01  3.04752490E+03
  4.57369510E+02  1.03948690E+02  2.92101550E+01  9.28666300E+00  3.16392700E+00
  7.86827240E+00  1.88128850E+00  5.44249300E-01  1.68714400E-01  4.38000000E-02
  8.00000000E-01  7.00171309E+03  1.05136609E+03  2.39285690E+02  6.73974453E+01
  2.15199573E+01  7.40310130E+00  2.08479528E+01  4.80830834E+00  1.34406986E+00
  3.58151390E-01  1.07600000E-01  8.00000000E-01  7.00171309E+03  1.05136609E+03
  2.39285690E+02  6.73974453E+01  2.15199573E+01  7.40310130E+00  2.08479528E+01
  4.80830834E+00  1.34406986E+00  3.58151390E-01  1.07600000E-01  8.00000000E-01
  7.00171309E+03  1.05136609E+03  2.39285690E+02  6.73974453E+01  2.15199573E+01
  7.40310130E+00  2.08479528E+01  4.80830834E+00  1.34406986E+00  3.58151390E-01
  1.07600000E-01  8.00000000E-01  8.17600000E+00  2.56800000E+00  9.58700000E-01
  8.17600000E+00  2.56800000E+00  9.58700000E-01  1.15300000E-01  3.96000000E-02
  2.56300000E+01  3.16600000E+00  1.02300000E+00  8.60000000E-02  2.40000000E-02
  4.13400000E+01  1.14200000E+01  3.83900000E+00  1.23000000E+00  3.10200000E-01
  4.17351100E+03  6.27457900E+02  1.42902100E+02  4.02343300E+01  1.28202100E+01
  4.39043700E+00  1.16263580E+01  2.71628000E+00  7.72218000E-01  2.12031300E-01
  6.39000000E-02  8.00000000E-01  5.48467170E+03  8.25234950E+02  1.88046960E+02
  5.29645000E+01  1.68975700E+01  5.79963530E+00  1.55396160E+01  3.59993360E+00
  1.01376180E+00  2.70005800E-01  8.45000000E-02  8.00000000E-01  4.17351100E+03
  6.27457900E+02  1.42902100E+02  4.02343300E+01  1.28202100E+01  4.39043700E+00
  1.16263580E+01  2.71628000E+00  7.72218000E-01  2.12031300E-01  6.39000000E-02
  8.00000000E-01
Contraction coefficients                   R   N=         156
  1.86900121E-03  1.42300092E-02  6.96960451E-02  2.38487154E-01  4.83307312E-01
  3.38074219E-01 -2.37670050E-03 -3.16930066E-02 -1.13317024E-01  5.60900117E-02
  5.92255123E-01  4.55006095E-01 -2.50373114E-01  6.69567631E-02  1.05450627E+00
  1.00000000E+00  1.00000000E+00  1.00000000E+00  1.83109981E-03  1.39500985E-02
  6.84450927E-02  2.32714275E-01  4.70192950E-01  3.58520862E-01 -1.10777504E-01
 -1.48026305E-01  1.13076704E+00  1.00000000E+00  1.00000000E+00  1.00000000E+00
  1.83109981E-03  1.39500985E-02  6.84450927E-02  2.32714275E-01  4.70192950E-01
  3.58520862E-01 -1.10777504E-01 -1.48026305E-01  1.13076704E+00  1.00000000E+00
  1.00000000E+00  1.00000000E+00  1.83109981E-03  1.39500985E-02  6.84450927E-02
  2.32714275E-01  4.70192950E-01  3.58520862E-01 -1.10777504E-01 -1.48026305E-01
  1.13076704E+00  1.00000000E+00  1.00000000E+00  1.00000000E+00  1.83470016E-03
  1.40373012E-02  6.88426061E-02  2.32184421E-01  4.67941342E-01  3.62312032E-01
 -1.19332409E-01 -1.60854212E-01  1.14345648E+00  1.00000000E+00  1.00000000E+00
  1.00000000E+00  1.81962000E-03  1.39160800E-02  6.84053199E-02  2.33185760E-01
  4.71267439E-01  3.56618549E-01 -1.08506980E-01 -1.46451660E-01  1.12868858E+00
  1.00000000E+00  1.00000000E+00  1.00000000E+00  1.81962000E-03  1.39160800E-02
  6.84053199E-02  2.33185760E-01  4.71267439E-01  3.56618549E-01 -1.08506980E-01
 -1.46451660E-01  1.12868858E+00  1.00000000E+00  1.00000000E+00  1.00000000E+00
  1.81962000E-03  1.39160800E-02  6.84053199E-02  2.33185760E-01  4.71267439E-01
  3.56618549E-01 -1.08506980E-01 -1.46451660E-01  1.12868858E+00  1.00000000E+00
  1.00000000E+00  1.00000000E+00 -4.21025989E-01  7.38592381E-01  5.52569186E-01
  1.78766496E-01 -3.59227292E-01 -4.70482490E-01  1.08074068E+00  1.00000000E+00
 -4.89173002E-02  6.27285402E-01  4.71618802E-01  1.00000000E+00  1.00000000E+00
  4.65424016E-02  2.22782408E-01  4.53905916E-01  5.31476918E-01  1.00000000E+00
  1.83479944E-03  1.39949958E-02  6.85869792E-02  2.32240930E-01  4.69069858E-01
  3.60454891E-01 -1.14961023E-01 -1.69118034E-01  1.14585223E+00  1.00000000E+00
  1.00000000E+00  1.00000000E+00  1.83109981E-03  1.39500985E-02  6.84450927E-02
  2.32714275E-01  4.70192950E-01  3.58520862E-01 -1.10777504E-01 -1.48026305E-01
  1.13076704E+00  1.00000000E+00  1.00000000E+00  1.00000000E+00  1.83479944E-03
  1.39949958E-02  6.85869792E-02  2.32240930E-01  4.69069858E-01  3.60454891E-01
 -1.14961023E-01 -1.69118034E-01  1.14585223E+00  1.00000000E+00  1.00000000E+00
  1.00000000E+00
P(S=P) Contraction coefficients            R   N=         156
  0.00000000E+00  0.00000000E+00  0.00000000E+00  0.00000000E+00  0.00000000E+00
  0.00000000E+00  4.06100032E-03  3.06810024E-02  1.30452010E-01  3.27205026E-01
  4.52851036E-01  2.56042020E-01 -1.45109929E-02  3.10262847E-01  7.54482628E-01
  1.00000000E+00  1.00000000E+00  0.00000000E+00  0.00000000E+00  0.00000000E+00
  0.00000000E+00  0.00000000E+00  0.00000000E+00  0.00000000E+00  7.08742995E-02
  3.39752798E-01  7.27158595E-01  1.00000000E+00  1.00000000E+00  0.00000000E+00
  0.00000000E+00  0.00000000E+00  0.00000000E+00  0.00000000E+00  0.00000000E+00
  0.00000000E+00  7.08742995E-02  3.39752798E-01  7.27158595E-01  1.00000000E+00
  1.00000000E+00  0.00000000E+00  0.00000000E+00  0.00000000E+00  0.00000000E+00
  0.00000000E+00  0.00000000E+00  0.00000000E+00  7.08742995E-02  3.39752798E-01
  7.27158595E-01  1.00000000E+00  1.00000000E+00  0.00000000E+00  0.00000000E+00
  0.00000000E+00  0.00000000E+00  0.00000000E+00  0.00000000E+00  0.00000000E+00
  6.89990956E-02  3.16423980E-01  7.44308252E-01  1.00000000E+00  1.00000000E+00
  0.00000000E+00  0.00000000E+00  0.00000000E+00  0.00000000E+00  0.00000000E+00
  0.00000000E+00  0.00000000E+00  7.16287200E-02  3.45912100E-01  7.22469960E-01
  1.00000000E+00  1.00000000E+00  0.00000000E+00  0.00000000E+00  0.00000000E+00
  0.00000000E+00  0.00000000E+00  0.00000000E+00  0.00000000E+00  7.16287200E-02
  3.45912100E-01  7.22469960E-01  1.00000000E+00  1.00000000E+00  0.00000000E+00
  0.00000000E+00  0.00000000E+00  0.00000000E+00  0.00000000E+00  0.00000000E+00
  0.00000000E+00  7.16287200E-02  3.45912100E-01  7.22469960E-01  1.00000000E+00
  1.00000000E+00  0.00000000E+00  0.00000000E+00  0.00000000E+00  0.00000000E+00
  0.00000000E+00  0.00000000E+00  0.00000000E+00  0.00000000E+00  0.00000000E+00
  0.00000000E+00  0.00000000E+00  0.00000000E+00  0.00000000E+00  0.00000000E+00
  0.00000000E+00  0.00000000E+00  0.00000000E+00  0.00000000E+00  0.00000000E+00
  0.00000000E+00  0.00000000E+00  0.00000000E+00  0.00000000E+00  0.00000000E+00
  0.00000000E+00  6.75800232E-02  3.23907111E-01  7.40895255E-01  1.00000000E+00
  1.00000000E+00  0.00000000E+00  0.00000000E+00  0.00000000E+00  0.00000000E+00
  0.00000000E+00  0.00000000E+00  0.00000000E+00  7.08742995E-02  3.39752798E-01
  7.27158595E-01  1.00000000E+00  1.00000000E+00  0.00000000E+00  0.00000000E+00
  0.00000000E+00  0.00000000E+00  0.00000000E+00  0.00000000E+00  0.00000000E+00
  6.75800232E-02  3.23907111E-01  7.40895255E-01  1.00000000E+00  1.00000000E+00
  0.00000000E+00
Coordinates of each shell                  R   N=         192
  2.23358983E+00 -1.02118375E+00  1.06566871E+00  2.23358983E+00 -1.02118375E+00
  1.06566871E+00  2.23358983E+00 -1.02118375E+00  1.06566871E+00  2.23358983E+00
 -1.02118375E+00  1.06566871E+00  2.23358983E+00 -1.02118375E+00  1.06566871E+00
  2.23358983E+00 -1.02118375E+00  1.06566871E+00  5.05508176E-01 -2.43972028E+00
 -7.35364629E-01  5.05508176E-01 -2.43972028E+00 -7.35364629E-01  5.05508176E-01
 -2.43972028E+00 -7.35364629E-01  5.05508176E-01 -2.43972028E+00 -7.35364629E-01
  5.05508176E-01 -2.43972028E+00 -7.35364629E-01  3.75878851E-01  2.02027707E-01
  2.88239511E+00  3.75878851E-01  2.02027707E-01  2.88239511E+00  3.75878851E-01
  2.02027707E-01  2.88239511E+00  3.75878851E-01  2.02027707E-01  2.88239511E+00
  3.75878851E-01  2.02027707E-01  2.88239511E+00  4.37919431E+00 -2.34604155E+00
  2.11220126E+00  4.37919431E+00 -2.34604155E+00  2.11220126E+00  4.37919431E+00
 -2.34604155E+00  2.11220126E+00  4.37919431E+00 -2.34604155E+00  2.11220126E+00
  4.37919431E+00 -2.34604155E+00  2.11220126E+00  3.51465685E+00  1.65700544E+00
 -8.48884973E-01  3.51465685E+00  1.65700544E+00 -8.48884973E-01  3.51465685E+00
  1.65700544E+00 -8.48884973E-01  3.51465685E+00  1.65700544E+00 -8.48884973E-01
  3.51465685E+00  1.65700544E+00 -8.48884973E-01  1.60603535E+00  2.96067148E+00
 -1.86345431E+00  1.60603535E+00  2.96067148E+00 -1.86345431E+00  1.60603535E+00
  2.96067148E+00 -1.86345431E+00  1.60603535E+00  2.96067148E+00 -1.86345431E+00
  1.60603535E+00  2.96067148E+00 -1.86345431E+00  4.97095516E+00  7.34752585E-01
 -2.67846533E+00  4.97095516E+00  7.34752585E-01 -2.67846533E+00  4.97095516E+00
  7.34752585E-01 -2.67846533E+00  4.97095516E+00  7.34752585E-01 -2.67846533E+00
  4.97095516E+00  7.34752585E-01 -2.67846533E+00  4.86417887E+00  3.16398631E+00
  6.43106726E-01  4.86417887E+00  3.16398631E+00  6.43106726E-01  4.86417887E+00
  3.16398631E+00  6.43106726E-01  4.86417887E+00  3.16398631E+00  6.43106726E-01
  4.86417887E+00  3.16398631E+00  6.43106726E-01 -2.68328323E+00 -1.30122294E+00
  1.10743043E+00 -2.68328323E+00 -1.30122294E+00  1.10743043E+00 -2.68328323E+00
 -1.30122294E+00  1.10743043E+00 -2.68328323E+00 -1.30122294E+00  1.10743043E+00
 -2.68328323E+00 -1.30122294E+00  1.10743043E+00 -2.68328323E+00 -1.30122294E+00
  1.10743043E+00 -2.68328323E+00 -1.30122294E+00  1.10743043E+00 -2.68328323E+00
 -1.30122294E+00  1.10743043E+00 -4.23066916E+00  2.84132114E+00 -2.00789883E+00
 -4.23066916E+00  2.84132114E+00 -2.00789883E+00 -4.23066916E+00  2.84132114E+00
 -2.00789883E+00 -4.23066916E+00  2.84132114E+00 -2.00789883E+00 -4.23066916E+00
  2.84132114E+00 -2.00789883E+00 -5.97789094E+00 -1.73357284E+00  1.27028703E+00
 -5.97789094E+00 -1.73357284E+00  1.27028703E+00 -5.97789094E+00 -1.73357284E+00
  1.27028703E+00 -5.97789094E+00 -1.73357284E+00  1.27028703E+00 -5.97789094E+00
 -1.73357284E+00  1.27028703E+00 -5.23908821E+00  4.28038656E+00 -3.13346540E+00
 -5.23908821E+00  4.28038656E+00 -3.13346540E+00 -5.23908821E+00  4.28038656E+00
 -3.13346540E+00 -5.23908821E+00  4.28038656E+00 -3.13346540E+00 -5.23908821E+00
  4.28038656E+00 -3.13346540E+00
Overlap Matrix                             R   N=       25200
  1.00000000E+00  2.62729640E-01  1.00000000E+00  3.76024331E-16 -3.61787793E-17
  1.00000000E+00  1.17034727E-16  3.02347879E-16 -2.96943028E-31  1.00000000E+00
  1.27443499E-16 -3.06566295E-17  2.08244059E-32 -1.71525882E-31  1.00000000E+00
  1.02304916E-02  3.22819433E-01 -1.05747266E-18 -5.70534106E-18  0.00000000E+00
  1.00000000E+00  1.87110422E-17  1.25667612E-20  3.10508414E-01 -1.96290518E-34
  0.00000000E+00  2.60681825E-16  1.00000000E+00 -4.35936743E-18 -6.69172775E-18
 -1.96290518E-34  3.10508414E-01  0.00000000E+00  8.85929643E-18  0.00000000E+00
  1.00000000E+00  1.15328654E-18  0.00000000E+00  0.00000000E+00  0.00000000E+00
  3.10508414E-01  0.00000000E+00  0.00000000E+00  0.00000000E+00  1.00000000E+00
  3.23138907E-02  2.49081598E-01 -1.27964072E-16  5.50213470E-17 -1.37047854E-17
  8.28320586E-01  0.00000000E+00  2.68762814E-18 -2.68762814E-18  1.00000000E+00
  9.08153822E-18 -4.32889094E-17  6.96293228E-02 -4.16653574E-33  4.16653574E-33
  0.00000000E+00  6.33490366E-01  0.00000000E+00  0.00000000E+00  0.00000000E+00
  1.00000000E+00 -4.16905102E-20  1.14173566E-19 -4.16653574E-33  6.96293228E-02
 -2.08326787E-33  9.81424307E-18  0.00000000E+00  6.33490366E-01  4.08547029E-34
  0.00000000E+00  0.00000000E+00  1.00000000E+00  2.79054269E-18  7.18558172E-19
  4.16653574E-33 -2.08326787E-33  6.96293228E-02 -9.81424307E-18  0.00000000E+00
  4.08547029E-34  6.33490366E-01  1.52010251E-16  0.00000000E+00  0.00000000E+00
  1.00000000E+00  1.46172057E-02  1.17472351E-01  2.02970843E-19  0.00000000E+00
  0.00000000E+00  4.96335175E-01  1.89214189E-16 -9.46070944E-17  9.46070944E-17
  8.16825030E-01  0.00000000E+00  0.00000000E+00  0.00000000E+00  1.00000000E+00
  2.21027121E-20 -1.16132943E-21  1.98155464E-02  0.00000000E+00  0.00000000E+00
  9.11006048E-17  2.55849977E-01 -1.69103047E-32  1.69103047E-32  0.00000000E+00
  7.13753738E-01  0.00000000E+00  0.00000000E+00  0.00000000E+00  1.00000000E+00
  0.00000000E+00  0.00000000E+00  0.00000000E+00  1.98155464E-02  0.00000000E+00
 -4.55503024E-17 -1.69103047E-32  2.55849977E-01 -8.45515235E-33  0.00000000E+00
  0.00000000E+00  7.13753738E-01  0.00000000E+00  0.00000000E+00  0.00000000E+00
  1.00000000E+00  0.00000000E+00  0.00000000E+00  0.00000000E+00  0.00000000E+00
  1.98155464E-02  4.55503024E-17  1.69103047E-32 -8.45515235E-33  2.55849977E-01
  0.00000000E+00  0.00000000E+00  0.00000000E+00  7.13753738E-01  0.00000000E+00
  0.00000000E+00  0.00000000E+00  1.00000000E+00  0.00000000E+00  0.00000000E+00
  5.34899310E-18 -7.81714286E-18  5.79577545E-17  0.00000000E+00  0.00000000E+00
  6.17416187E-17  0.00000000E+00  0.00000000E+00  1.81507597E-16  0.00000000E+00
 -1.81507597E-16  0.00000000E+00  6.25925326E-17  0.00000000E+00  0.00000000E+00
  1.00000000E+00  0.00000000E+00  9.97405640E-32  5.01928877E-17  3.79710464E-47
 -9.26472781E-18  0.00000000E+00  0.00000000E+00  0.00000000E+00  0.00000000E+00
  1.56452648E-31 -1.57190190E-16  0.00000000E+00 -3.14380380E-16  0.00000000E+00
  0.00000000E+00  0.00000000E+00 -1.08413447E-16  0.00000000E+00  1.00000000E+00
  0.00000000E+00 -2.13270889E-33  3.79710464E-47  5.01928877E-17  1.35396886E-17
  0.00000000E+00  0.00000000E+00  0.00000000E+00 -1.06939621E-16  0.00000000E+00
  0.00000000E+00 -1.57190190E-16  0.00000000E+00  0.00000000E+00  0.00000000E+00
  0.00000000E+00  0.00000000E+00  0.00000000E+00  0.00000000E+00  1.00000000E+00
  0.00000000E+00  0.00000000E+00 -9.26472781E-18 -1.35396886E-17  0.00000000E+00
  0.00000000E+00  0.00000000E+00  1.06939621E-16  0.00000000E+00  0.00000000E+00
 -3.14380380E-16  0.00000000E+00  0.00000000E+00  0.00000000E+00 -1.08413447E-16
  0.00000000E+00  0.00000000E+00  0.00000000E+00  0.00000000E+00  0.00000000E+00
  1.00000000E+00 -1.71458197E-35  9.10485555E-36  1.35396886E-17 -9.26472781E-18
  3.79710464E-47  0.00000000E+00 -1.06939621E-16  0.00000000E+00  0.00000000E+00
  0.00000000E+00  0.00000000E+00 -3.14380380E-16  0.00000000E+00  0.00000000E+00
  0.00000000E+00 -1.08413447E-16  0.00000000E+00  0.00000000E+00  0.00000000E+00
  0.00000000E+00  0.00000000E+00  1.00000000E+00  2.25665937E-18  1.22683068E-06
 -2.50806626E-06 -2.05880527E-06 -2.61394531E-06  1.39558669E-02 -1.96969113E-02
 -1.61686736E-02 -2.05284245E-02  3.54484047E-02 -4.13516085E-02 -3.39444419E-02
 -4.30972838E-02  3.01200026E-02 -2.08474136E-02 -1.71130905E-02 -2.17274957E-02
  2.02039089E-03  1.46297781E-02  1.20091979E-02  2.28923167E-03  1.15227599E-02
  1.00000000E+00  5.34370035E-05  2.60359457E-03 -2.53895333E-03 -2.08415964E-03
 -2.64613629E-03  1.12191085E-01 -1.29873818E-01 -1.06609982E-01 -1.35356494E-01
  2.11354085E-01 -2.22765192E-01 -1.82862055E-01 -2.32169317E-01  1.82690801E-01
 -1.21928905E-01 -1.00088213E-01 -1.27076184E-01  1.63452086E-02  1.18356689E-01
  9.71558757E-02  1.85201634E-02  9.32205324E-02  2.33689906E-01  1.00000000E+00
  1.15912928E-04  3.97790264E-03 -2.99887243E-03 -3.23577770E-03 -4.10827876E-03
  7.36805373E-02 -3.71793151E-02 -7.65814779E-02 -9.72310487E-02  5.83792417E-02
  3.62767962E-02 -5.12367783E-02 -6.50523576E-02  1.85762106E-02  4.09571699E-02
 -1.02265176E-02 -1.29840146E-02  4.48166959E-02  7.24595842E-02  1.00768947E-01
 -2.90523332E-02  5.70708855E-02 -1.74047239E-17 -1.03839099E-16  1.00000000E+00
  9.51498569E-05  3.26535508E-03 -3.23577770E-03 -1.71316572E-03 -3.37237739E-03
  6.04824046E-02 -7.65814779E-02 -6.75036465E-03 -7.98143966E-02  4.79219757E-02
 -5.12367783E-02  5.66352619E-02 -5.33997600E-02  1.52487200E-02 -1.02265176E-02
  4.50205832E-02 -1.06582343E-02  3.67888404E-02  1.00768947E-01  3.24199639E-02
  5.53844457E-02  3.11067784E-02 -5.22829445E-17  1.08146223E-15 -1.40288559E-31
  1.00000000E+00  1.20806240E-04  4.14583145E-03 -4.10827876E-03 -3.37237739E-03
 -3.33871282E-03  7.67909916E-02 -9.72310487E-02 -7.98143966E-02 -4.52223522E-02
  6.08437455E-02 -6.50523576E-02 -5.33997600E-02  3.08956085E-02  1.93604130E-02
 -1.29840146E-02 -1.06582343E-02  3.98831208E-02 -4.04110789E-02  7.96792395E-02
  6.54065805E-02  2.00198101E-02  1.00768947E-01  1.57615153E-17  1.03839099E-16
 -3.50721397E-32  1.40288559E-31  1.00000000E+00  6.60060746E-03  5.74491636E-02
 -2.05783256E-02 -1.68922033E-02 -2.14470481E-02  2.95658396E-01 -2.23741129E-01
 -1.83663176E-01 -2.33186453E-01  4.49093836E-01 -3.70511983E-01 -3.04143489E-01
 -3.86153299E-01  4.13521900E-01 -2.50105739E-01 -2.05305187E-01 -2.60664056E-01
  1.73638653E-02  1.25732846E-01  1.03210768E-01  1.96743664E-02  9.90301689E-02
  1.67279760E-01  7.63640773E-01 -8.18317711E-18  2.08233183E-16  8.18317711E-18
  1.00000000E+00  1.17590982E-02  9.29622554E-02 -1.06048104E-02 -2.75172311E-02
 -3.49370280E-02  2.90731521E-01  1.27703710E-02 -1.94053859E-01 -2.46378899E-01
  2.44072229E-01  2.11256330E-01 -1.65295030E-01 -2.09865487E-01  9.68644959E-02
  2.19945110E-01 -4.80912462E-02 -6.10586584E-02  9.95993059E-02  1.95111276E-02
  1.30956966E-01 -1.09387424E-01  1.53674264E-02  0.00000000E+00  1.68597508E-18
  5.01520641E-01  0.00000000E+00 -9.44166796E-34  0.00000000E+00  1.00000000E+00
  9.65273276E-03  7.63102571E-02 -2.75172311E-02  3.28909937E-04 -2.86788823E-02
  2.38653817E-01 -1.94053859E-01  8.98758986E-02 -2.02245922E-01  2.00352438E-01
 -1.65295030E-01  2.76934800E-01 -1.72273028E-01  7.95135031E-02 -4.80912462E-02
  2.39053727E-01 -5.01214380E-02  8.17584363E-02  1.30956966E-01 -3.25234262E-02
  1.30776891E-01 -3.12060499E-02 -2.69379826E-17 -2.48464929E-17  0.00000000E+00
  5.01520641E-01  0.00000000E+00  0.00000000E+00  0.00000000E+00  1.00000000E+00
  1.22555134E-02  9.68866954E-02 -3.49370280E-02 -2.86788823E-02 -1.34948318E-02
  3.03004872E-01 -2.46378899E-01 -2.02245922E-01 -7.61030621E-03  2.54375839E-01
 -2.09865487E-01 -1.72273028E-01  1.93896074E-01  1.00953671E-01 -6.10586584E-02
 -5.01214380E-02  2.14894285E-01 -1.38722215E-01  3.19175841E-02  2.62003008E-02
  2.60172769E-02  1.30956966E-01 -6.73414447E-18 -1.68597508E-18 -9.44166796E-34
  0.00000000E+00  5.01520641E-01  0.00000000E+00  0.00000000E+00  0.00000000E+00
  1.00000000E+00  1.26429930E-02  1.01317286E-01 -1.21992732E-02 -1.00140608E-02
 -1.27142706E-02  4.18283762E-01 -1.41838900E-01 -1.16431802E-01 -1.47826688E-01
  6.54041055E-01 -3.24208049E-01 -2.66133813E-01 -3.37894625E-01  7.22624494E-01
 -3.39766958E-01 -2.78905710E-01 -3.54110360E-01  4.07096051E-03  2.94780823E-02
  2.41977782E-02  4.61265779E-03  2.32176361E-02  7.23158236E-02  4.09528899E-01
  0.00000000E+00  0.00000000E+00  3.98105293E-17  7.86651414E-01  0.00000000E+00
  0.00000000E+00 -9.07630538E-17  1.00000000E+00  1.26700318E-02  9.84136372E-02
  1.24136609E-02 -9.74501683E-03 -1.23726811E-02  3.34118288E-01  1.66013449E-01
 -9.55055766E-02 -1.21257876E-01  3.81766743E-01  4.56161580E-01 -1.55343519E-01
 -1.97230632E-01  2.35223278E-01  5.65778148E-01 -9.07872844E-02 -1.15267335E-01
  3.61273058E-02 -3.24736564E-02  2.15139254E-02 -5.22042267E-02 -2.55770213E-02
  0.00000000E+00  0.00000000E+00  1.68056960E-01  0.00000000E+00  0.00000000E+00
  0.00000000E+00  6.70353497E-01  0.00000000E+00  0.00000000E+00  6.45458880E-17
  1.00000000E+00  1.04004940E-02  8.07851523E-02 -9.74501683E-03  1.62857543E-02
 -1.01564067E-02  2.74268867E-01 -9.55055766E-02  2.03961717E-01 -9.95373840E-02
  3.13382223E-01 -1.55343519E-01  5.17885908E-01 -1.61901410E-01  1.93088569E-01
 -9.07872844E-02  6.01851646E-01 -9.46199071E-02  2.96559499E-02  2.15139254E-02
 -4.10220181E-02  4.95859614E-02 -3.93604025E-02 -7.76212243E-18  0.00000000E+00
  0.00000000E+00  1.68056960E-01  0.00000000E+00  0.00000000E+00  0.00000000E+00
  6.70353497E-01  0.00000000E+00  0.00000000E+00  0.00000000E+00  1.00000000E+00
  1.32049024E-02  1.02568210E-01 -1.23726811E-02 -1.01564067E-02  1.13901820E-02
  3.48223230E-01 -1.21257876E-01 -9.95373840E-02  1.55982892E-01  3.97883184E-01
 -1.97230632E-01 -1.61901410E-01  4.39846490E-01  2.45153326E-01 -1.15267335E-01
 -9.46199071E-02  5.56243133E-01 -6.39881699E-02 -2.89903000E-02 -2.37973706E-02
  4.27418084E-03  2.15139254E-02  2.59199088E-21  2.99654273E-17  0.00000000E+00
  0.00000000E+00  1.68056960E-01 -5.07751141E-17  0.00000000E+00  0.00000000E+00
  6.70353497E-01  0.00000000E+00  0.00000000E+00  0.00000000E+00  1.00000000E+00
  2.77408106E-04  3.93745984E-03 -7.22278661E-03 -5.92899452E-03  4.35621296E-03
  1.55808222E-02 -7.49649060E-02 -6.15367089E-02  8.92041816E-02  5.27368263E-03
 -4.12047059E-02 -3.38238534E-02  6.88733880E-02  6.51521825E-04 -7.94619241E-03
 -6.52281921E-03  1.52146928E-02 -1.63511356E-01 -3.06713377E-02 -2.51772900E-02
  2.60953140E-02  1.31349762E-01  0.00000000E+00  0.00000000E+00 -2.03600065E-17
  8.14400261E-17 -2.04586626E-16  0.00000000E+00  0.00000000E+00  0.00000000E+00
  0.00000000E+00  0.00000000E+00  3.03870372E-17  0.00000000E+00  6.07740744E-17
  1.00000000E+00  2.00872962E-03  2.85113955E-02 -1.79172812E-02 -2.03399836E-02
 -1.92412294E-02  1.12821718E-01 -5.86837890E-02 -1.27476723E-01 -6.91528287E-02
  3.81870692E-02  2.51525876E-02 -3.23467811E-02  2.08741285E-02  4.71771070E-03
  1.04423766E-02 -2.56378503E-03  9.76104622E-03 -3.06713377E-02  7.73491085E-02
  1.19098795E-01 -7.41736147E-02  1.06847786E-01 -1.10224529E-33  3.95570143E-33
 -1.77177216E-16  1.53001296E-47  3.52645657E-17  0.00000000E+00  0.00000000E+00
  0.00000000E+00  0.00000000E+00 -1.77798748E-32  5.26318923E-17  0.00000000E+00
 -5.26318923E-17  0.00000000E+00  1.00000000E+00  1.64891303E-03  2.34042506E-02
 -2.03399836E-02 -9.83537454E-03 -1.57946164E-02  9.26123648E-02 -1.27476723E-01
 -8.03207801E-03 -5.67657284E-02  3.13467552E-02 -3.23467811E-02  3.80052855E-02
  1.71350201E-02  3.87264396E-03 -2.56378503E-03  1.14610731E-02  8.01258471E-03
 -2.51772900E-02  1.19098795E-01  3.00262906E-02  1.26257509E-01  5.05284103E-02
  4.37482997E-33 -1.58228057E-32  1.53001296E-47 -1.77177216E-16 -1.41058263E-16
  0.00000000E+00  0.00000000E+00  0.00000000E+00  0.00000000E+00  0.00000000E+00
  0.00000000E+00  5.26318923E-17  0.00000000E+00  0.00000000E+00  0.00000000E+00
  1.00000000E+00  3.14321069E-04  4.46139301E-03  2.70599219E-03 -8.58677858E-03
 -4.04095331E-03  1.76540648E-02  6.83969323E-02 -9.60397208E-02 -2.53258555E-02
  5.97541862E-03  5.57769086E-02 -5.59088786E-02 -6.42634896E-03  7.38215763E-04
  1.25274181E-02 -1.10857758E-02 -5.09348277E-04  2.60953140E-02 -7.41736147E-02
  1.26257509E-01 -1.25778547E-01  3.13612473E-02  0.00000000E+00  0.00000000E+00
  3.52645657E-17  1.41058263E-16  0.00000000E+00  0.00000000E+00  0.00000000E+00
  0.00000000E+00  0.00000000E+00  0.00000000E+00 -5.26318923E-17  0.00000000E+00
  0.00000000E+00  0.00000000E+00  0.00000000E+00  0.00000000E+00  1.00000000E+00
  1.58212305E-03  2.24562507E-02 -1.41120752E-02 -9.43698818E-03 -2.03399836E-02
  8.88610586E-02 -4.62207428E-02 -7.70673501E-03 -1.27476723E-01  3.00770405E-02
  1.98107740E-02  3.64658640E-02 -3.23467811E-02  3.71578074E-03  8.22466324E-03
  1.09968371E-02 -2.56378503E-03  1.31349762E-01  1.06847786E-01  5.05284103E-02
  3.13612473E-02  2.58465364E-02 -4.37482997E-33  1.58228057E-32 -1.41058263E-16
  3.52645657E-17  1.53001296E-47  0.00000000E+00  0.00000000E+00  0.00000000E+00
  0.00000000E+00  0.00000000E+00  0.00000000E+00 -5.26318923E-17  0.00000000E+00
  0.00000000E+00  0.00000000E+00  0.00000000E+00  0.00000000E+00  1.00000000E+00
  2.19885390E-18  1.21699749E-06 -2.67453027E-06  1.76104685E-06  2.61552513E-06
  1.39302146E-02 -2.11345011E-02  1.39160312E-02  2.06682345E-02  3.54254857E-02
 -4.44247918E-02  2.92515439E-02  4.34446979E-02  3.01132079E-02 -2.24061937E-02
  1.47533783E-02  2.19118713E-02  2.23636092E-03 -1.58108685E-02  1.04106806E-02
  4.57899448E-03 -1.06455411E-02  6.54590663E-27  8.08555993E-09 -1.16898057E-09
  2.38229434E-08  3.26244918E-08  8.77402883E-04 -1.14369078E-04  2.33075566E-03
  3.19186918E-03  1.34788482E-02 -1.00552016E-03  2.04917433E-02  2.80625572E-02
  2.42222034E-06 -2.05154954E-07  4.18090342E-06 -1.52280691E-06 -1.49807540E-07
  1.00000000E+00  5.31438535E-05  2.59357526E-03 -2.71877633E-03  1.79018071E-03
  2.65879505E-03  1.12032745E-01 -1.39405010E-01  9.17913540E-02  1.36329476E-01
  2.11230615E-01 -2.39335754E-01  1.57590842E-01  2.34055561E-01  1.82651061E-01
 -1.31046699E-01  8.62878165E-02  1.28155564E-01  1.81142814E-02 -1.28066324E-01
  8.43253859E-02  3.70893597E-02 -8.62277307E-02  8.08555993E-09  4.84500094E-05
 -4.07104481E-06  8.29648262E-05  1.13616745E-04  1.10750308E-02 -1.16977436E-03
  2.38391202E-02  3.26466452E-02  8.60902882E-02 -5.96387923E-03  1.21539366E-01
  1.66442911E-01  7.77116573E-04 -6.58194931E-05  1.34135168E-03 -4.88559389E-04