Jobname.Temp
SP        U                             non-standard        
Number of atoms                            I               12
Charge                                     I                0
Multiplicity                               I                1
Number of electrons                        I              114
Number of alpha electrons                  I               57
Number of beta electrons                   I               57
Atomic numbers                             I   N=          12
          16           8           8           8           6           9
           9           9          29           7           8           7
Current cartesian coordinates              R   N=          36
  2.42443258E+00 -8.37857869E-01  1.42434609E+00  1.17576052E+00 -2.77618080E+00
 -2.90122301E-01  2.37766626E-01  9.13465830E-01  2.06509328E+00  4.00613061E+00
 -1.73332251E+00  3.45955083E+00  4.46147253E+00  1.07042920E+00 -7.41775670E-01
  3.06056332E+00  1.89837850E+00 -2.67566209E+00  6.33223393E+00 -3.75066152E-01
 -1.60513672E+00  5.40304309E+00  3.03210962E+00  5.24180264E-01 -2.22644246E+00
 -9.94606456E-01 -1.55068224E-01 -8.10662829E+00  3.65284805E+00  8.81284436E-01
 -5.33646707E+00 -1.14852884E+00 -1.30705753E+00 -1.01290298E+01  3.50446630E+00
  3.77290492E-01
Nuclear charges                            R   N=          12
  1.60000000E+01  8.00000000E+00  8.00000000E+00  8.00000000E+00  6.00000000E+00
  9.00000000E+00  9.00000000E+00  9.00000000E+00  2.90000000E+01  7.00000000E+00
  8.00000000E+00  7.00000000E+00
Number of basis functions                  I              224
Number of contracted shells                I               64
Number of primitive shells                 I              156
Highest angular momentum                   I                2
Largest degree of contraction              I                6
Shell types                                I   N=          64
           0          -1          -1          -1          -1          -2
           0          -1          -1          -1          -2           0
          -1          -1          -1          -2           0          -1
          -1          -1          -2           0          -1          -1
          -1          -2           0          -1          -1          -1
          -2           0          -1          -1          -1          -2
           0          -1          -1          -1          -2           0
           0           0           1           1           1          -2
          -2           0          -1          -1          -1          -2
           0          -1          -1          -1          -2           0
          -1          -1          -1          -2
Number of primitives per shell             I   N=          64
           6           6           3           1           1           1
           6           3           1           1           1           6
           3           1           1           1           6           3
           1           1           1           6           3           1
           1           1           6           3           1           1
           1           6           3           1           1           1
           6           3           1           1           1           3
           4           1           3           1           1           4
           1           6           3           1           1           1
           6           3           1           1           1           6
           3           1           1           1
Shell to atom map                          I   N=          64
           1           1           1           1           1           1
           2           2           2           2           2           3
           3           3           3           3           4           4
           4           4           4           5           5           5
           5           5           6           6           6           6
           6           7           7           7           7           7
           8           8           8           8           8           9
           9           9           9           9           9           9
           9          10          10          10          10          10
          11          11          11          11          11          12
          12          12          12          12
Primitive exponents                        R   N=         156
  2.19171000E+04  3.30149000E+03  7.54146000E+02  2.12711000E+02  6.79896000E+01
  2.30515000E+01  4.23735000E+02  1.00710000E+02  3.21599000E+01  1.18079000E+01
  4.63110000E+00  1.87025000E+00  2.61584000E+00  9.22167000E-01  3.41287000E-01
  1.17167000E-01  4.05000000E-02  6.50000000E-01  5.48467170E+03  8.25234950E+02
  1.88046960E+02  5.29645000E+01  1.68975700E+01  5.79963530E+00  1.55396160E+01
  3.59993360E+00  1.01376180E+00  2.70005800E-01  8.45000000E-02  8.00000000E-01
  5.48467170E+03  8.25234950E+02  1.88046960E+02  5.29645000E+01  1.68975700E+01
  5.79963530E+00  1.55396160E+01  3.59993360E+00  1.01376180E+00  2.70005800E-01
  8.45000000E-02  8.00000000E-01  5.48467170E+03  8.25234950E+02  1.88046960E+02
  5.29645000E+01  1.68975700E+01  5.79963530E+00  1.55396160E+01  3.59993360E+00
  1.01376180E+00  2.70005800E-01  8.45000000E-02  8.00000000E-01  3.04752490E+03
  4.57369510E+02  1.03948690E+02  2.92101550E+01  9.28666300E+00  3.16392700E+00
  7.86827240E+00  1.88128850E+00  5.44249300E-01  1.68714400E-01  4.38000000E-02
  8.00000000E-01  7.00171309E+03  1.05136609E+03  2.39285690E+02  6.73974453E+01
  2.15199573E+01  7.40310130E+00  2.08479528E+01  4.80830834E+00  1.34406986E+00
  3.58151390E-01  1.07600000E-01  8.00000000E-01  7.00171309E+03  1.05136609E+03
  2.39285690E+02  6.73974453E+01  2.15199573E+01  7.40310130E+00  2.08479528E+01
  4.80830834E+00  1.34406986E+00  3.58151390E-01  1.07600000E-01  8.00000000E-01
  7.00171309E+03  1.05136609E+03  2.39285690E+02  6.73974453E+01  2.15199573E+01
  7.40310130E+00  2.08479528E+01  4.80830834E+00  1.34406986E+00  3.58151390E-01
  1.07600000E-01  8.00000000E-01  8.17600000E+00  2.56800000E+00  9.58700000E-01
  8.17600000E+00  2.56800000E+00  9.58700000E-01  1.15300000E-01  3.96000000E-02
  2.56300000E+01  3.16600000E+00  1.02300000E+00  8.60000000E-02  2.40000000E-02
  4.13400000E+01  1.14200000E+01  3.83900000E+00  1.23000000E+00  3.10200000E-01
  4.17351100E+03  6.27457900E+02  1.42902100E+02  4.02343300E+01  1.28202100E+01
  4.39043700E+00  1.16263580E+01  2.71628000E+00  7.72218000E-01  2.12031300E-01
  6.39000000E-02  8.00000000E-01  5.48467170E+03  8.25234950E+02  1.88046960E+02
  5.29645000E+01  1.68975700E+01  5.79963530E+00  1.55396160E+01  3.59993360E+00
  1.01376180E+00  2.70005800E-01  8.45000000E-02  8.00000000E-01  4.17351100E+03
  6.27457900E+02  1.42902100E+02  4.02343300E+01  1.28202100E+01  4.39043700E+00
  1.16263580E+01  2.71628000E+00  7.72218000E-01  2.12031300E-01  6.39000000E-02
  8.00000000E-01
Contraction coefficients                   R   N=         156
  1.86900121E-03  1.42300092E-02  6.96960451E-02  2.38487154E-01  4.83307312E-01
  3.38074219E-01 -2.37670050E-03 -3.16930066E-02 -1.13317024E-01  5.60900117E-02
  5.92255123E-01  4.55006095E-01 -2.50373114E-01  6.69567631E-02  1.05450627E+00
  1.00000000E+00  1.00000000E+00  1.00000000E+00  1.83109981E-03  1.39500985E-02
  6.84450927E-02  2.32714275E-01  4.70192950E-01  3.58520862E-01 -1.10777504E-01
 -1.48026305E-01  1.13076704E+00  1.00000000E+00  1.00000000E+00  1.00000000E+00
  1.83109981E-03  1.39500985E-02  6.84450927E-02  2.32714275E-01  4.70192950E-01
  3.58520862E-01 -1.10777504E-01 -1.48026305E-01  1.13076704E+00  1.00000000E+00
  1.00000000E+00  1.00000000E+00  1.83109981E-03  1.39500985E-02  6.84450927E-02
  2.32714275E-01  4.70192950E-01  3.58520862E-01 -1.10777504E-01 -1.48026305E-01
  1.13076704E+00  1.00000000E+00  1.00000000E+00  1.00000000E+00  1.83470016E-03
  1.40373012E-02  6.88426061E-02  2.32184421E-01  4.67941342E-01  3.62312032E-01
 -1.19332409E-01 -1.60854212E-01  1.14345648E+00  1.00000000E+00  1.00000000E+00
  1.00000000E+00  1.81962000E-03  1.39160800E-02  6.84053199E-02  2.33185760E-01
  4.71267439E-01  3.56618549E-01 -1.08506980E-01 -1.46451660E-01  1.12868858E+00
  1.00000000E+00  1.00000000E+00  1.00000000E+00  1.81962000E-03  1.39160800E-02
  6.84053199E-02  2.33185760E-01  4.71267439E-01  3.56618549E-01 -1.08506980E-01
 -1.46451660E-01  1.12868858E+00  1.00000000E+00  1.00000000E+00  1.00000000E+00
  1.81962000E-03  1.39160800E-02  6.84053199E-02  2.33185760E-01  4.71267439E-01
  3.56618549E-01 -1.08506980E-01 -1.46451660E-01  1.12868858E+00  1.00000000E+00
  1.00000000E+00  1.00000000E+00 -4.21025989E-01  7.38592381E-01  5.52569186E-01
  1.78766496E-01 -3.59227292E-01 -4.70482490E-01  1.08074068E+00  1.00000000E+00
 -4.89173002E-02  6.27285402E-01  4.71618802E-01  1.00000000E+00  1.00000000E+00
  4.65424016E-02  2.22782408E-01  4.53905916E-01  5.31476918E-01  1.00000000E+00
  1.83479944E-03  1.39949958E-02  6.85869792E-02  2.32240930E-01  4.69069858E-01
  3.60454891E-01 -1.14961023E-01 -1.69118034E-01  1.14585223E+00  1.00000000E+00
  1.00000000E+00  1.00000000E+00  1.83109981E-03  1.39500985E-02  6.84450927E-02
  2.32714275E-01  4.70192950E-01  3.58520862E-01 -1.10777504E-01 -1.48026305E-01
  1.13076704E+00  1.00000000E+00  1.00000000E+00  1.00000000E+00  1.83479944E-03
  1.39949958E-02  6.85869792E-02  2.32240930E-01  4.69069858E-01  3.60454891E-01
 -1.14961023E-01 -1.69118034E-01  1.14585223E+00  1.00000000E+00  1.00000000E+00
  1.00000000E+00
P(S=P) Contraction coefficients            R   N=         156
  0.00000000E+00  0.00000000E+00  0.00000000E+00  0.00000000E+00  0.00000000E+00
  0.00000000E+00  4.06100032E-03  3.06810024E-02  1.30452010E-01  3.27205026E-01
  4.52851036E-01  2.56042020E-01 -1.45109929E-02  3.10262847E-01  7.54482628E-01
  1.00000000E+00  1.00000000E+00  0.00000000E+00  0.00000000E+00  0.00000000E+00
  0.00000000E+00  0.00000000E+00  0.00000000E+00  0.00000000E+00  7.08742995E-02
  3.39752798E-01  7.27158595E-01  1.00000000E+00  1.00000000E+00  0.00000000E+00
  0.00000000E+00  0.00000000E+00  0.00000000E+00  0.00000000E+00  0.00000000E+00
  0.00000000E+00  7.08742995E-02  3.39752798E-01  7.27158595E-01  1.00000000E+00
  1.00000000E+00  0.00000000E+00  0.00000000E+00  0.00000000E+00  0.00000000E+00
  0.00000000E+00  0.00000000E+00  0.00000000E+00  7.08742995E-02  3.39752798E-01
  7.27158595E-01  1.00000000E+00  1.00000000E+00  0.00000000E+00  0.00000000E+00
  0.00000000E+00  0.00000000E+00  0.00000000E+00  0.00000000E+00  0.00000000E+00
  6.89990956E-02  3.16423980E-01  7.44308252E-01  1.00000000E+00  1.00000000E+00
  0.00000000E+00  0.00000000E+00  0.00000000E+00  0.00000000E+00  0.00000000E+00
  0.00000000E+00  0.00000000E+00  7.16287200E-02  3.45912100E-01  7.22469960E-01
  1.00000000E+00  1.00000000E+00  0.00000000E+00  0.00000000E+00  0.00000000E+00
  0.00000000E+00  0.00000000E+00  0.00000000E+00  0.00000000E+00  7.16287200E-02
  3.45912100E-01  7.22469960E-01  1.00000000E+00  1.00000000E+00  0.00000000E+00
  0.00000000E+00  0.00000000E+00  0.00000000E+00  0.00000000E+00  0.00000000E+00
  0.00000000E+00  7.16287200E-02  3.45912100E-01  7.22469960E-01  1.00000000E+00
  1.00000000E+00  0.00000000E+00  0.00000000E+00  0.00000000E+00  0.00000000E+00
  0.00000000E+00  0.00000000E+00  0.00000000E+00  0.00000000E+00  0.00000000E+00
  0.00000000E+00  0.00000000E+00  0.00000000E+00  0.00000000E+00  0.00000000E+00
  0.00000000E+00  0.00000000E+00  0.00000000E+00  0.00000000E+00  0.00000000E+00
  0.00000000E+00  0.00000000E+00  0.00000000E+00  0.00000000E+00  0.00000000E+00
  0.00000000E+00  6.75800232E-02  3.23907111E-01  7.40895255E-01  1.00000000E+00
  1.00000000E+00  0.00000000E+00  0.00000000E+00  0.00000000E+00  0.00000000E+00
  0.00000000E+00  0.00000000E+00  0.00000000E+00  7.08742995E-02  3.39752798E-01
  7.27158595E-01  1.00000000E+00  1.00000000E+00  0.00000000E+00  0.00000000E+00
  0.00000000E+00  0.00000000E+00  0.00000000E+00  0.00000000E+00  0.00000000E+00
  6.75800232E-02  3.23907111E-01  7.40895255E-01  1.00000000E+00  1.00000000E+00
  0.00000000E+00
Coordinates of each shell                  R   N=         192
  2.42443258E+00 -8.37857869E-01  1.42434609E+00  2.42443258E+00 -8.37857869E-01
  1.42434609E+00  2.42443258E+00 -8.37857869E-01  1.42434609E+00  2.42443258E+00
 -8.37857869E-01  1.42434609E+00  2.42443258E+00 -8.37857869E-01  1.42434609E+00
  2.42443258E+00 -8.37857869E-01  1.42434609E+00  1.17576052E+00 -2.77618080E+00
 -2.90122301E-01  1.17576052E+00 -2.77618080E+00 -2.90122301E-01  1.17576052E+00
 -2.77618080E+00 -2.90122301E-01  1.17576052E+00 -2.77618080E+00 -2.90122301E-01
  1.17576052E+00 -2.77618080E+00 -2.90122301E-01  2.37766626E-01  9.13465830E-01
  2.06509328E+00  2.37766626E-01  9.13465830E-01  2.06509328E+00  2.37766626E-01
  9.13465830E-01  2.06509328E+00  2.37766626E-01  9.13465830E-01  2.06509328E+00
  2.37766626E-01  9.13465830E-01  2.06509328E+00  4.00613061E+00 -1.73332251E+00
  3.45955083E+00  4.00613061E+00 -1.73332251E+00  3.45955083E+00  4.00613061E+00
 -1.73332251E+00  3.45955083E+00  4.00613061E+00 -1.73332251E+00  3.45955083E+00
  4.00613061E+00 -1.73332251E+00  3.45955083E+00  4.46147253E+00  1.07042920E+00
 -7.41775670E-01  4.46147253E+00  1.07042920E+00 -7.41775670E-01  4.46147253E+00
  1.07042920E+00 -7.41775670E-01  4.46147253E+00  1.07042920E+00 -7.41775670E-01
  4.46147253E+00  1.07042920E+00 -7.41775670E-01  3.06056332E+00  1.89837850E+00
 -2.67566209E+00  3.06056332E+00  1.89837850E+00 -2.67566209E+00  3.06056332E+00
  1.89837850E+00 -2.67566209E+00  3.06056332E+00  1.89837850E+00 -2.67566209E+00
  3.06056332E+00  1.89837850E+00 -2.67566209E+00  6.33223393E+00 -3.75066152E-01
 -1.60513672E+00  6.33223393E+00 -3.75066152E-01 -1.60513672E+00  6.33223393E+00
 -3.75066152E-01 -1.60513672E+00  6.33223393E+00 -3.75066152E-01 -1.60513672E+00
  6.33223393E+00 -3.75066152E-01 -1.60513672E+00  5.40304309E+00  3.03210962E+00
  5.24180264E-01  5.40304309E+00  3.03210962E+00  5.24180264E-01  5.40304309E+00
  3.03210962E+00  5.24180264E-01  5.40304309E+00  3.03210962E+00  5.24180264E-01
  5.40304309E+00  3.03210962E+00  5.24180264E-01 -2.22644246E+00 -9.94606456E-01
 -1.55068224E-01 -2.22644246E+00 -9.94606456E-01 -1.55068224E-01 -2.22644246E+00
 -9.94606456E-01 -1.55068224E-01 -2.22644246E+00 -9.94606456E-01 -1.55068224E-01
 -2.22644246E+00 -9.94606456E-01 -1.55068224E-01 -2.22644246E+00 -9.94606456E-01
 -1.55068224E-01 -2.22644246E+00 -9.94606456E-01 -1.55068224E-01 -2.22644246E+00
 -9.94606456E-01 -1.55068224E-01 -8.10662829E+00  3.65284805E+00  8.81284436E-01
 -8.10662829E+00  3.65284805E+00  8.81284436E-01 -8.10662829E+00  3.65284805E+00
  8.81284436E-01 -8.10662829E+00  3.65284805E+00  8.81284436E-01 -8.10662829E+00
  3.65284805E+00  8.81284436E-01 -5.33646707E+00 -1.14852884E+00 -1.30705753E+00
 -5.33646707E+00 -1.14852884E+00 -1.30705753E+00 -5.33646707E+00 -1.14852884E+00
 -1.30705753E+00 -5.33646707E+00 -1.14852884E+00 -1.30705753E+00 -5.33646707E+00
 -1.14852884E+00 -1.30705753E+00 -1.01290298E+01  3.50446630E+00  3.77290492E-01
 -1.01290298E+01  3.50446630E+00  3.77290492E-01 -1.01290298E+01  3.50446630E+00
  3.77290492E-01 -1.01290298E+01  3.50446630E+00  3.77290492E-01 -1.01290298E+01
  3.50446630E+00  3.77290492E-01
Overlap Matrix                             R   N=       25200
  1.00000000E+00  2.62729640E-01  1.00000000E+00  5.52379148E-16  5.93251634E-17
  1.00000000E+00 -8.53519906E-17  1.98832750E-16 -6.48194241E-31  1.00000000E+00
  4.12327254E-16 -2.73056703E-16  6.10170418E-31 -4.85836401E-31  1.00000000E+00
  1.02304916E-02  3.22819433E-01  1.11789948E-16 -5.07311155E-17 -1.37454694E-17
  1.00000000E+00  1.58622188E-17 -2.09677464E-16  3.10508414E-01 -1.87451824E-32
  3.04491840E-32  3.79356993E-17  1.00000000E+00 -8.32995298E-18  2.29294438E-17
 -1.87451824E-32  3.10508414E-01  7.04577545E-34 -1.08953175E-17 -1.75069127E-32
  1.00000000E+00  1.88043709E-17 -5.17511870E-17  3.04491840E-32  7.04577545E-34
  3.10508414E-01  1.18872096E-16  3.50138254E-32 -8.75345635E-33  1.00000000E+00
  3.23138907E-02  2.49081598E-01 -2.15461191E-16  5.38652977E-17 -1.22641028E-16
  8.28320586E-01 -5.37525629E-18  1.34381407E-18  0.00000000E+00  1.00000000E+00
  2.85271752E-18 -4.47829955E-17  6.96293228E-02 -1.63761548E-32  1.52853150E-32
 -1.96284861E-17  6.33490366E-01  4.08547029E-34  0.00000000E+00  3.04020502E-16
  1.00000000E+00 -2.72519391E-18  1.11957489E-17 -1.63761548E-32  6.96293228E-02
 -3.82132875E-33  4.90712153E-18  4.08547029E-34  6.33490366E-01  0.00000000E+00
  0.00000000E+00  0.00000000E+00  1.00000000E+00  2.37766798E-18 -3.80080390E-17
  1.52853150E-32 -3.82132875E-33  6.96293228E-02  0.00000000E+00  0.00000000E+00
  0.00000000E+00  6.33490366E-01  1.52010251E-16  4.62142328E-32  0.00000000E+00
  1.00000000E+00  1.46172057E-02  1.17472351E-01 -1.86069956E-17  1.19706977E-17
  0.00000000E+00  4.96335175E-01  2.52884426E-18 -4.79357583E-17  0.00000000E+00
  8.16825030E-01  0.00000000E+00  0.00000000E+00  0.00000000E+00  1.00000000E+00
  9.52926677E-19 -4.52420583E-18  1.98155464E-02 -2.15781170E-33  0.00000000E+00
  5.42918411E-18  2.55849977E-01  1.13002960E-34  0.00000000E+00  0.00000000E+00
  7.13753738E-01  0.00000000E+00  0.00000000E+00  0.00000000E+00  1.00000000E+00
 -5.15288421E-21  3.14398354E-18 -2.15781170E-33  1.98155464E-02  0.00000000E+00
 -2.41324472E-17  1.13002960E-34  2.55849977E-01  0.00000000E+00  0.00000000E+00
  0.00000000E+00  7.13753738E-01  0.00000000E+00  0.00000000E+00  0.00000000E+00
  1.00000000E+00  1.03057684E-20  0.00000000E+00  0.00000000E+00  0.00000000E+00
  1.98155464E-02  0.00000000E+00  0.00000000E+00  0.00000000E+00  2.55849977E-01
  0.00000000E+00  0.00000000E+00  0.00000000E+00  7.13753738E-01  0.00000000E+00
  0.00000000E+00  0.00000000E+00  1.00000000E+00  0.00000000E+00  0.00000000E+00
  0.00000000E+00  1.50107496E-17  6.01692946E-17  0.00000000E+00  0.00000000E+00
 -8.54627376E-19 -2.71157983E-16  0.00000000E+00  1.81507597E-16 -9.07537986E-17
 -1.81507597E-16  0.00000000E+00  0.00000000E+00  0.00000000E+00 -6.25925326E-17
  1.00000000E+00  0.00000000E+00  0.00000000E+00  5.21081377E-17  0.00000000E+00
  0.00000000E+00  0.00000000E+00 -2.34829702E-16  0.00000000E+00  0.00000000E+00
  1.56452648E-31 -1.57190190E-16  2.37824063E-47 -3.14380380E-16  0.00000000E+00
 -5.42067234E-17  0.00000000E+00  0.00000000E+00  0.00000000E+00  1.00000000E+00
 -4.28645493E-36 -2.38665103E-32  0.00000000E+00  5.21081377E-17 -2.59993809E-17
 -1.14513722E-32  0.00000000E+00 -2.34829702E-16  1.48025804E-18 -7.82263241E-32
  2.37824063E-47 -1.57190190E-16  1.57190190E-16  0.00000000E+00  0.00000000E+00
 -5.42067234E-17  0.00000000E+00 -3.70052358E-32  0.00000000E+00  1.00000000E+00
  0.00000000E+00  0.00000000E+00  0.00000000E+00  2.59993809E-17  0.00000000E+00
  0.00000000E+00  0.00000000E+00 -1.48025804E-18  0.00000000E+00  0.00000000E+00
 -3.14380380E-16 -1.57190190E-16  0.00000000E+00  0.00000000E+00  0.00000000E+00
  0.00000000E+00  0.00000000E+00  0.00000000E+00  0.00000000E+00  6.40949485E-32
  1.00000000E+00 -1.11871305E-33  0.00000000E+00 -2.59993809E-17  0.00000000E+00
  0.00000000E+00  0.00000000E+00  1.48025804E-18  0.00000000E+00  0.00000000E+00
 -1.56452648E-31  1.57190190E-16 -3.14380380E-16  2.37824063E-47  0.00000000E+00
  0.00000000E+00  0.00000000E+00  0.00000000E+00  0.00000000E+00 -6.40949485E-32
  0.00000000E+00  0.00000000E+00  1.00000000E+00  2.12029602E-18  1.20334442E-06
 -1.77747472E-06 -2.75918722E-06 -2.44053207E-06  1.38943300E-02 -1.41681354E-02
 -2.19933019E-02 -1.94533225E-02  3.53933785E-02 -2.98333372E-02 -4.63105110E-02
 -4.09621669E-02  3.01036844E-02 -1.50557004E-02 -2.33710756E-02 -2.06719787E-02
  7.57160587E-04  9.98191537E-03  1.54950014E-02 -5.12408912E-03  1.12852331E-02
  1.00000000E+00  5.27355670E-05  2.57959376E-03 -1.81747026E-03 -2.82127259E-03
 -2.49544728E-03  1.11811125E-01 -9.35034099E-02 -1.45146038E-01 -1.28383300E-01
  2.11057632E-01 -1.60739359E-01 -2.49516903E-01 -2.20700501E-01  1.82595361E-01
 -8.80569995E-02 -1.36691535E-01 -1.20905197E-01  6.14330413E-03  8.09893475E-02
  1.25720366E-01 -4.15748501E-02  9.15639566E-02  2.33689906E-01  1.00000000E+00
  8.26563546E-05  2.84750954E-03 -1.10439712E-03 -3.16447707E-03 -2.79901549E-03
  5.30544068E-02  7.38568789E-03 -7.53149059E-02 -6.66168798E-02  4.21234778E-02
  6.60109407E-02 -5.05164504E-02 -4.46823675E-02  1.34156963E-02  4.68860477E-02
 -1.00918190E-02 -8.92632724E-03  2.46257430E-02  1.30569328E-02  9.41872114E-02
 -6.58284301E-02  1.47617491E-02 -2.18663564E-16 -1.38446361E-16  1.00000000E+00
  1.28308074E-04  4.42021023E-03 -3.16447707E-03 -3.97807503E-03 -4.34493256E-03
  8.23567500E-02 -7.53149059E-02 -6.10081657E-02 -1.03409878E-01  6.53885877E-02
 -5.05164504E-02  2.01366922E-02 -6.93607712E-02  2.08252851E-02 -1.00918190E-02
  3.77216149E-02 -1.38564041E-02  3.82267239E-02  9.41872114E-02  9.85888242E-02
  5.48635050E-03  7.18036631E-02 -2.17577494E-17  4.58393257E-16 -3.78744711E-31
  1.00000000E+00  1.13489932E-04  3.90972557E-03 -2.79901549E-03 -4.34493256E-03
 -2.90897538E-03  7.28454699E-02 -6.66168798E-02 -1.03409878E-01 -3.55634751E-02
  5.78369399E-02 -4.46823675E-02 -6.93607712E-02  3.72033728E-02  1.84201985E-02
 -8.92632724E-03 -1.38564041E-02  4.11310756E-02 -4.86660141E-02  4.86282711E-02
  7.54860267E-02 -4.27659457E-02  9.41872114E-02 -1.25778364E-17  0.00000000E+00
  0.00000000E+00  0.00000000E+00  1.00000000E+00  6.57687788E-03  5.72615374E-02
 -1.48205378E-02 -2.30060309E-02 -2.03490926E-02  2.95071225E-01 -1.61325244E-01
 -2.50426376E-01 -2.21504941E-01  4.48600687E-01 -2.67429452E-01 -4.15132727E-01
 -3.67189557E-01  4.13326124E-01 -1.80635096E-01 -2.80401203E-01 -2.48018012E-01
  6.54335869E-03  8.62634080E-02  1.33907330E-01 -4.42822219E-02  9.75266401E-02
  1.67279760E-01  7.63640773E-01 -1.04116592E-16  0.00000000E+00  4.09158856E-18
  1.00000000E+00  8.46630674E-03  6.69526967E-02  5.39701959E-03 -2.70795558E-02
 -2.39521711E-02  2.09665300E-01  1.25477273E-01 -1.91183209E-01 -1.69103695E-01
  1.76167318E-01  3.07147385E-01 -1.63024314E-01 -1.44196836E-01  6.99589205E-02
  2.47824685E-01 -4.74602603E-02 -4.19791331E-02  6.19040430E-02 -5.38623363E-02
  1.22769950E-01 -1.37429313E-01 -6.08950284E-02 -2.21392313E-20  1.24232465E-17
  5.01520641E-01  0.00000000E+00  0.00000000E+00  0.00000000E+00  1.00000000E+00
  1.31423109E-02  1.03931169E-01 -2.70795558E-02 -1.91940644E-02 -3.71811333E-02
  3.25465004E-01 -1.91183209E-01 -4.81371828E-02 -2.62500923E-01  2.73465838E-01
 -1.63024314E-01  1.59104167E-01 -2.23837820E-01  1.08597752E-01 -4.74602603E-02
  2.04725778E-01 -6.51645203E-02  9.60941060E-02  1.22769950E-01  5.76256869E-02
  8.72877641E-02  4.19696192E-02  6.40914199E-18  0.00000000E+00  0.00000000E+00
  5.01520641E-01  0.00000000E+00  0.00000000E+00  0.00000000E+00  1.00000000E+00
  1.16245215E-02  9.19282855E-02 -2.39521711E-02 -3.71811333E-02 -1.00453984E-02
  2.87877450E-01 -1.69103695E-01 -2.62500923E-01  1.64529212E-02  2.41883604E-01
 -1.44196836E-01 -2.23837820E-01  2.14180956E-01  9.60559311E-02 -4.19791331E-02
 -6.51645203E-02  2.20759944E-01 -1.45281604E-01  1.17612536E-02  1.82570814E-02
 -5.57440116E-02  1.22769950E-01 -5.47636035E-18 -8.42987540E-19  0.00000000E+00
  0.00000000E+00  5.01520641E-01  0.00000000E+00  0.00000000E+00  0.00000000E+00
  1.00000000E+00  1.26286721E-02  1.01206047E-01 -8.80521831E-03 -1.36684058E-02
 -1.20898584E-02  4.17906065E-01 -1.02394495E-01 -1.58947735E-01 -1.40591056E-01
  6.53609443E-01 -2.34110685E-01 -3.63411756E-01 -3.21441778E-01  7.22358520E-01
 -2.45417427E-01 -3.80963296E-01 -3.36966312E-01  1.53648571E-03  2.02560336E-02
  3.14435916E-02 -1.03981769E-02  2.29008214E-02  7.23158236E-02  4.09528899E-01
  1.26516735E-16 -9.37913518E-17 -1.17239190E-17  7.86651414E-01  0.00000000E+00
  3.63052215E-16  0.00000000E+00  1.00000000E+00  9.14470349E-03  7.10333437E-02
  1.80669591E-02 -9.61112604E-03 -8.50114888E-03  2.41208651E-01  2.21407927E-01
 -9.42095009E-02 -8.33293612E-02  2.75673827E-01  5.46236170E-01 -1.53276717E-01
 -1.35574977E-01  1.69904372E-01  6.18403477E-01 -8.96055461E-02 -7.92571115E-02
  2.44529216E-02 -4.27924260E-02  2.02004223E-02 -4.73241513E-02 -4.83797432E-02
  0.00000000E+00  5.68005271E-17  1.68056960E-01  0.00000000E+00  0.00000000E+00
  0.00000000E+00  6.70353497E-01  0.00000000E+00  0.00000000E+00  1.29091776E-16
  1.00000000E+00  1.41953912E-02  1.10265588E-01 -9.61112604E-03  9.33904604E-03
 -1.31963966E-02  3.74429982E-01 -9.42095009E-02  1.35855794E-01 -1.29352787E-01
  4.27930531E-01 -1.53276717E-01  4.07044795E-01 -2.10454045E-01  2.63743820E-01
 -8.96055461E-02  5.37032219E-01 -1.23031403E-01  3.79584519E-02  2.02004223E-02
 -2.44483186E-02  5.27223727E-02 -1.78060632E-02 -1.05896210E-17  6.26065485E-18
  0.00000000E+00  1.68056960E-01  3.02692304E-33  2.03100456E-16  0.00000000E+00
  6.70353497E-01  0.00000000E+00  0.00000000E+00  0.00000000E+00  1.00000000E+00
  1.25559829E-02  9.75311500E-02 -8.50114888E-03 -1.31963966E-02  1.25861075E-02
  3.31187522E-01 -8.33293612E-02 -1.29352787E-01  1.67683911E-01  3.78509359E-01
 -1.35574977E-01 -2.10454045E-01  4.58828417E-01  2.33284370E-01 -7.92571115E-02
 -1.23031403E-01  5.67304917E-01 -6.30834305E-02 -2.27765119E-02 -3.53561487E-02
 -9.17205372E-03  2.02004223E-02 -1.34297237E-18  7.82581856E-19  0.00000000E+00
  3.02692304E-33  1.68056960E-01  0.00000000E+00  0.00000000E+00  0.00000000E+00
  6.70353497E-01 -3.22729440E-17 -4.16617166E-33  0.00000000E+00  1.00000000E+00
  1.03711324E-04  1.47564898E-03 -3.65068475E-03 -5.66698507E-03  6.20860962E-03
  5.86878292E-03 -4.43638370E-02 -6.88663139E-02  9.78026445E-02  1.98969038E-03
 -2.72894470E-02 -4.23616115E-02  6.88276676E-02  2.46020999E-04 -5.54494517E-03
 -8.60745960E-03  1.47420227E-02 -1.55936237E-01 -3.59630175E-02 -5.58256594E-02
 -5.09185162E-02  1.12142336E-01  0.00000000E+00  0.00000000E+00  0.00000000E+00
  8.54174930E-17 -1.93656398E-17  0.00000000E+00  1.61303242E-16  0.00000000E+00
  8.06516212E-17  0.00000000E+00  0.00000000E+00  0.00000000E+00  3.03870372E-17
  1.00000000E+00  1.36726300E-03  1.94540015E-02 -5.73607674E-03 -1.89608055E-02
 -1.20526475E-02  7.73702375E-02  1.47465981E-02 -1.19353718E-01 -3.88309485E-02
  2.62307908E-02  4.18121646E-02 -3.03606968E-02  1.78427126E-02  3.24338170E-03
  1.13553903E-02 -2.40842968E-03  7.27000293E-03 -3.59630175E-02  6.66328243E-03
  9.77704000E-02 -1.39536923E-01  1.43306953E-02 -6.06085168E-33  0.00000000E+00
 -1.67711360E-17  0.00000000E+00  0.00000000E+00 -3.19362224E-32  6.98463528E-17
  0.00000000E+00 -2.79385411E-16  0.00000000E+00  2.63159462E-17  0.00000000E+00
  0.00000000E+00  0.00000000E+00  1.00000000E+00  2.12241252E-03  3.01985912E-02
 -1.89608055E-02 -2.29544818E-02 -1.87094143E-02  1.20102395E-01 -1.19353718E-01
 -9.36391272E-02 -6.02775700E-02  4.07182516E-02 -3.03606968E-02  1.42414597E-02
  2.76973754E-02  5.03472552E-03 -2.40842968E-03  9.16828292E-03  1.12852796E-02
 -5.58256594E-02  9.77704000E-02  9.54490857E-02  2.56529247E-02  1.32243117E-01
  9.95136397E-33 -5.43379862E-33  0.00000000E+00 -1.67711360E-17 -1.47947438E-16
  0.00000000E+00  0.00000000E+00  6.98463528E-17  0.00000000E+00  0.00000000E+00
  0.00000000E+00  2.63159462E-17  0.00000000E+00  0.00000000E+00  0.00000000E+00
  1.00000000E+00 -7.01867047E-04 -9.98646391E-03  1.09886042E-02  2.40888405E-03
  8.60920252E-03 -3.97170260E-02  1.06208198E-01 -4.23303542E-02  5.41928626E-02
 -1.34652424E-02  5.47371608E-02 -5.37983477E-02  1.37853525E-02 -1.66494869E-03
  1.01967370E-02 -1.33557972E-02  1.09355369E-03 -5.09185162E-02 -1.39536923E-01
  2.56529247E-02 -1.11383315E-01 -6.95362855E-02  0.00000000E+00  0.00000000E+00
  0.00000000E+00  1.47947438E-16  0.00000000E+00  0.00000000E+00 -2.79385411E-16
  0.00000000E+00  0.00000000E+00  0.00000000E+00  0.00000000E+00  0.00000000E+00
  0.00000000E+00  0.00000000E+00  0.00000000E+00  0.00000000E+00  1.00000000E+00
  1.54578366E-03  2.19940696E-02 -6.48502424E-03 -1.67180803E-02 -1.89608055E-02
  8.74723069E-02  1.66720304E-02 -6.81987274E-02 -1.19353718E-01  2.96556901E-02
  4.72714912E-02  1.03722605E-02 -3.03606968E-02  3.66686324E-03  1.28380398E-02
  6.67739273E-03 -2.40842968E-03  1.12142336E-01  1.43306953E-02  1.32243117E-01
 -6.95362855E-02  1.01894457E-02 -3.97371535E-32  0.00000000E+00 -1.47947438E-16
  0.00000000E+00  0.00000000E+00  0.00000000E+00  0.00000000E+00 -2.79385411E-16
  0.00000000E+00  0.00000000E+00  0.00000000E+00  0.00000000E+00  0.00000000E+00
  0.00000000E+00  0.00000000E+00  0.00000000E+00  0.00000000E+00  1.00000000E+00
  2.08597955E-18  1.19727084E-06 -3.09694432E-06  2.48037519E-06  9.07481257E-07
  1.38782654E-02 -2.47817059E-02  1.98479282E-02  7.26165255E-03  3.53789875E-02
 -5.22226918E-02  4.18257016E-02  1.53025399E-02  3.00994139E-02 -2.63616991E-02
  2.11133613E-02  7.72462960E-03 -9.43903612E-03 -6.51905719E-03  5.22118129E-03
  3.98832955E-03 -1.78182278E-02  7.42502476E-27  8.39825182E-09 -8.78622730E-09
  3.45610715E-08  2.20614011E-08  8.87420987E-04 -8.37022703E-04  3.29247133E-03
  2.10168630E-03  1.35279311E-02 -7.30240935E-03  2.87243982E-02  1.83356720E-02
 -4.42849392E-07 -9.96999682E-07  3.92174891E-06 -2.87334377E-06 -1.56188527E-06
  1.00000000E+00  5.25534654E-05  2.57334758E-03 -3.17494024E-03  2.54284294E-03
  9.30335989E-04  1.11711867E-01 -1.63586840E-01  1.31018416E-01  4.79349889E-02
  2.10980093E-01 -2.81382310E-01  2.25362044E-01  8.24519738E-02  1.82570384E-01
 -1.54183722E-01  1.23487360E-01  4.51796425E-02 -7.66427738E-02 -5.29332253E-02
  4.23947754E-02  3.23843065E-02 -1.44679857E-01  8.39825182E-09  4.95286610E-05
 -3.01142037E-05  1.18455751E-04  7.56139699E-05  1.11773854E-02 -8.54256597E-03
  3.36026173E-02  2.14495901E-02  8.63813682E-02 -4.33003184E-02  1.70324003E-01
  1.08723080E-01 -1.40420171E-04 -3.16132004E-04  1.24352130E-03 -9.11089483E-04