Jobname.Temp
SP        U                             non-standard        
Number of atoms                            I               12
Charge                                     I                0
Multiplicity                               I                1
Number of electrons                        I              114
Number of alpha electrons                  I               57
Number of beta electrons                   I               57
Atomic numbers                             I   N=          12
          16           8           8           8           6           9
           9           9          29           7           8           7
Current cartesian coordinates              R   N=          36
  2.12161546E+00 -4.87954864E-01  1.49821354E+00  9.35999388E-01 -2.46762094E+00
 -2.55479416E-01  1.54697485E-01  1.43005753E+00  2.08325899E+00  3.62580474E+00
 -1.52201270E+00  3.54708628E+00  4.37883293E+00  1.13144761E+00 -6.70742236E-01
  3.12860309E+00  2.06679357E+00 -2.66535670E+00  6.12434493E+00 -4.94721092E-01
 -1.48192390E+00  5.50772417E+00  3.02801184E+00  5.51669647E-01 -2.52031909E+00
 -1.32431087E+00 -4.93037201E-01 -6.83046125E+00  1.80223228E+00  2.95355515E-01
 -6.09672855E+00 -1.24109534E-01 -7.08962547E-01 -7.60301156E+00  3.57095228E+00
  1.19059790E+00
Nuclear charges                            R   N=          12
  1.60000000E+01  8.00000000E+00  8.00000000E+00  8.00000000E+00  6.00000000E+00
  9.00000000E+00  9.00000000E+00  9.00000000E+00  2.90000000E+01  7.00000000E+00
  8.00000000E+00  7.00000000E+00
Number of basis functions                  I              224
Number of contracted shells                I               64
Number of primitive shells                 I              156
Highest angular momentum                   I                2
Largest degree of contraction              I                6
Shell types                                I   N=          64
           0          -1          -1          -1          -1          -2
           0          -1          -1          -1          -2           0
          -1          -1          -1          -2           0          -1
          -1          -1          -2           0          -1          -1
          -1          -2           0          -1          -1          -1
          -2           0          -1          -1          -1          -2
           0          -1          -1          -1          -2           0
           0           0           1           1           1          -2
          -2           0          -1          -1          -1          -2
           0          -1          -1          -1          -2           0
          -1          -1          -1          -2
Number of primitives per shell             I   N=          64
           6           6           3           1           1           1
           6           3           1           1           1           6
           3           1           1           1           6           3
           1           1           1           6           3           1
           1           1           6           3           1           1
           1           6           3           1           1           1
           6           3           1           1           1           3
           4           1           3           1           1           4
           1           6           3           1           1           1
           6           3           1           1           1           6
           3           1           1           1
Shell to atom map                          I   N=          64
           1           1           1           1           1           1
           2           2           2           2           2           3
           3           3           3           3           4           4
           4           4           4           5           5           5
           5           5           6           6           6           6
           6           7           7           7           7           7
           8           8           8           8           8           9
           9           9           9           9           9           9
           9          10          10          10          10          10
          11          11          11          11          11          12
          12          12          12          12
Primitive exponents                        R   N=         156
  2.19171000E+04  3.30149000E+03  7.54146000E+02  2.12711000E+02  6.79896000E+01
  2.30515000E+01  4.23735000E+02  1.00710000E+02  3.21599000E+01  1.18079000E+01
  4.63110000E+00  1.87025000E+00  2.61584000E+00  9.22167000E-01  3.41287000E-01
  1.17167000E-01  4.05000000E-02  6.50000000E-01  5.48467170E+03  8.25234950E+02
  1.88046960E+02  5.29645000E+01  1.68975700E+01  5.79963530E+00  1.55396160E+01
  3.59993360E+00  1.01376180E+00  2.70005800E-01  8.45000000E-02  8.00000000E-01
  5.48467170E+03  8.25234950E+02  1.88046960E+02  5.29645000E+01  1.68975700E+01
  5.79963530E+00  1.55396160E+01  3.59993360E+00  1.01376180E+00  2.70005800E-01
  8.45000000E-02  8.00000000E-01  5.48467170E+03  8.25234950E+02  1.88046960E+02
  5.29645000E+01  1.68975700E+01  5.79963530E+00  1.55396160E+01  3.59993360E+00
  1.01376180E+00  2.70005800E-01  8.45000000E-02  8.00000000E-01  3.04752490E+03
  4.57369510E+02  1.03948690E+02  2.92101550E+01  9.28666300E+00  3.16392700E+00
  7.86827240E+00  1.88128850E+00  5.44249300E-01  1.68714400E-01  4.38000000E-02
  8.00000000E-01  7.00171309E+03  1.05136609E+03  2.39285690E+02  6.73974453E+01
  2.15199573E+01  7.40310130E+00  2.08479528E+01  4.80830834E+00  1.34406986E+00
  3.58151390E-01  1.07600000E-01  8.00000000E-01  7.00171309E+03  1.05136609E+03
  2.39285690E+02  6.73974453E+01  2.15199573E+01  7.40310130E+00  2.08479528E+01
  4.80830834E+00  1.34406986E+00  3.58151390E-01  1.07600000E-01  8.00000000E-01
  7.00171309E+03  1.05136609E+03  2.39285690E+02  6.73974453E+01  2.15199573E+01
  7.40310130E+00  2.08479528E+01  4.80830834E+00  1.34406986E+00  3.58151390E-01
  1.07600000E-01  8.00000000E-01  8.17600000E+00  2.56800000E+00  9.58700000E-01
  8.17600000E+00  2.56800000E+00  9.58700000E-01  1.15300000E-01  3.96000000E-02
  2.56300000E+01  3.16600000E+00  1.02300000E+00  8.60000000E-02  2.40000000E-02
  4.13400000E+01  1.14200000E+01  3.83900000E+00  1.23000000E+00  3.10200000E-01
  4.17351100E+03  6.27457900E+02  1.42902100E+02  4.02343300E+01  1.28202100E+01
  4.39043700E+00  1.16263580E+01  2.71628000E+00  7.72218000E-01  2.12031300E-01
  6.39000000E-02  8.00000000E-01  5.48467170E+03  8.25234950E+02  1.88046960E+02
  5.29645000E+01  1.68975700E+01  5.79963530E+00  1.55396160E+01  3.59993360E+00
  1.01376180E+00  2.70005800E-01  8.45000000E-02  8.00000000E-01  4.17351100E+03
  6.27457900E+02  1.42902100E+02  4.02343300E+01  1.28202100E+01  4.39043700E+00
  1.16263580E+01  2.71628000E+00  7.72218000E-01  2.12031300E-01  6.39000000E-02
  8.00000000E-01
Contraction coefficients                   R   N=         156
  1.86900121E-03  1.42300092E-02  6.96960451E-02  2.38487154E-01  4.83307312E-01
  3.38074219E-01 -2.37670050E-03 -3.16930066E-02 -1.13317024E-01  5.60900117E-02
  5.92255123E-01  4.55006095E-01 -2.50373114E-01  6.69567631E-02  1.05450627E+00
  1.00000000E+00  1.00000000E+00  1.00000000E+00  1.83109981E-03  1.39500985E-02
  6.84450927E-02  2.32714275E-01  4.70192950E-01  3.58520862E-01 -1.10777504E-01
 -1.48026305E-01  1.13076704E+00  1.00000000E+00  1.00000000E+00  1.00000000E+00
  1.83109981E-03  1.39500985E-02  6.84450927E-02  2.32714275E-01  4.70192950E-01
  3.58520862E-01 -1.10777504E-01 -1.48026305E-01  1.13076704E+00  1.00000000E+00
  1.00000000E+00  1.00000000E+00  1.83109981E-03  1.39500985E-02  6.84450927E-02
  2.32714275E-01  4.70192950E-01  3.58520862E-01 -1.10777504E-01 -1.48026305E-01
  1.13076704E+00  1.00000000E+00  1.00000000E+00  1.00000000E+00  1.83470016E-03
  1.40373012E-02  6.88426061E-02  2.32184421E-01  4.67941342E-01  3.62312032E-01
 -1.19332409E-01 -1.60854212E-01  1.14345648E+00  1.00000000E+00  1.00000000E+00
  1.00000000E+00  1.81962000E-03  1.39160800E-02  6.84053199E-02  2.33185760E-01
  4.71267439E-01  3.56618549E-01 -1.08506980E-01 -1.46451660E-01  1.12868858E+00
  1.00000000E+00  1.00000000E+00  1.00000000E+00  1.81962000E-03  1.39160800E-02
  6.84053199E-02  2.33185760E-01  4.71267439E-01  3.56618549E-01 -1.08506980E-01
 -1.46451660E-01  1.12868858E+00  1.00000000E+00  1.00000000E+00  1.00000000E+00
  1.81962000E-03  1.39160800E-02  6.84053199E-02  2.33185760E-01  4.71267439E-01
  3.56618549E-01 -1.08506980E-01 -1.46451660E-01  1.12868858E+00  1.00000000E+00
  1.00000000E+00  1.00000000E+00 -4.21025989E-01  7.38592381E-01  5.52569186E-01
  1.78766496E-01 -3.59227292E-01 -4.70482490E-01  1.08074068E+00  1.00000000E+00
 -4.89173002E-02  6.27285402E-01  4.71618802E-01  1.00000000E+00  1.00000000E+00
  4.65424016E-02  2.22782408E-01  4.53905916E-01  5.31476918E-01  1.00000000E+00
  1.83479944E-03  1.39949958E-02  6.85869792E-02  2.32240930E-01  4.69069858E-01
  3.60454891E-01 -1.14961023E-01 -1.69118034E-01  1.14585223E+00  1.00000000E+00
  1.00000000E+00  1.00000000E+00  1.83109981E-03  1.39500985E-02  6.84450927E-02
  2.32714275E-01  4.70192950E-01  3.58520862E-01 -1.10777504E-01 -1.48026305E-01
  1.13076704E+00  1.00000000E+00  1.00000000E+00  1.00000000E+00  1.83479944E-03
  1.39949958E-02  6.85869792E-02  2.32240930E-01  4.69069858E-01  3.60454891E-01
 -1.14961023E-01 -1.69118034E-01  1.14585223E+00  1.00000000E+00  1.00000000E+00
  1.00000000E+00
P(S=P) Contraction coefficients            R   N=         156
  0.00000000E+00  0.00000000E+00  0.00000000E+00  0.00000000E+00  0.00000000E+00
  0.00000000E+00  4.06100032E-03  3.06810024E-02  1.30452010E-01  3.27205026E-01
  4.52851036E-01  2.56042020E-01 -1.45109929E-02  3.10262847E-01  7.54482628E-01
  1.00000000E+00  1.00000000E+00  0.00000000E+00  0.00000000E+00  0.00000000E+00
  0.00000000E+00  0.00000000E+00  0.00000000E+00  0.00000000E+00  7.08742995E-02
  3.39752798E-01  7.27158595E-01  1.00000000E+00  1.00000000E+00  0.00000000E+00
  0.00000000E+00  0.00000000E+00  0.00000000E+00  0.00000000E+00  0.00000000E+00
  0.00000000E+00  7.08742995E-02  3.39752798E-01  7.27158595E-01  1.00000000E+00
  1.00000000E+00  0.00000000E+00  0.00000000E+00  0.00000000E+00  0.00000000E+00
  0.00000000E+00  0.00000000E+00  0.00000000E+00  7.08742995E-02  3.39752798E-01
  7.27158595E-01  1.00000000E+00  1.00000000E+00  0.00000000E+00  0.00000000E+00
  0.00000000E+00  0.00000000E+00  0.00000000E+00  0.00000000E+00  0.00000000E+00
  6.89990956E-02  3.16423980E-01  7.44308252E-01  1.00000000E+00  1.00000000E+00
  0.00000000E+00  0.00000000E+00  0.00000000E+00  0.00000000E+00  0.00000000E+00
  0.00000000E+00  0.00000000E+00  7.16287200E-02  3.45912100E-01  7.22469960E-01
  1.00000000E+00  1.00000000E+00  0.00000000E+00  0.00000000E+00  0.00000000E+00
  0.00000000E+00  0.00000000E+00  0.00000000E+00  0.00000000E+00  7.16287200E-02
  3.45912100E-01  7.22469960E-01  1.00000000E+00  1.00000000E+00  0.00000000E+00
  0.00000000E+00  0.00000000E+00  0.00000000E+00  0.00000000E+00  0.00000000E+00
  0.00000000E+00  7.16287200E-02  3.45912100E-01  7.22469960E-01  1.00000000E+00
  1.00000000E+00  0.00000000E+00  0.00000000E+00  0.00000000E+00  0.00000000E+00
  0.00000000E+00  0.00000000E+00  0.00000000E+00  0.00000000E+00  0.00000000E+00
  0.00000000E+00  0.00000000E+00  0.00000000E+00  0.00000000E+00  0.00000000E+00
  0.00000000E+00  0.00000000E+00  0.00000000E+00  0.00000000E+00  0.00000000E+00
  0.00000000E+00  0.00000000E+00  0.00000000E+00  0.00000000E+00  0.00000000E+00
  0.00000000E+00  6.75800232E-02  3.23907111E-01  7.40895255E-01  1.00000000E+00
  1.00000000E+00  0.00000000E+00  0.00000000E+00  0.00000000E+00  0.00000000E+00
  0.00000000E+00  0.00000000E+00  0.00000000E+00  7.08742995E-02  3.39752798E-01
  7.27158595E-01  1.00000000E+00  1.00000000E+00  0.00000000E+00  0.00000000E+00
  0.00000000E+00  0.00000000E+00  0.00000000E+00  0.00000000E+00  0.00000000E+00
  6.75800232E-02  3.23907111E-01  7.40895255E-01  1.00000000E+00  1.00000000E+00
  0.00000000E+00
Coordinates of each shell                  R   N=         192
  2.12161546E+00 -4.87954864E-01  1.49821354E+00  2.12161546E+00 -4.87954864E-01
  1.49821354E+00  2.12161546E+00 -4.87954864E-01  1.49821354E+00  2.12161546E+00
 -4.87954864E-01  1.49821354E+00  2.12161546E+00 -4.87954864E-01  1.49821354E+00
  2.12161546E+00 -4.87954864E-01  1.49821354E+00  9.35999388E-01 -2.46762094E+00
 -2.55479416E-01  9.35999388E-01 -2.46762094E+00 -2.55479416E-01  9.35999388E-01
 -2.46762094E+00 -2.55479416E-01  9.35999388E-01 -2.46762094E+00 -2.55479416E-01
  9.35999388E-01 -2.46762094E+00 -2.55479416E-01  1.54697485E-01  1.43005753E+00
  2.08325899E+00  1.54697485E-01  1.43005753E+00  2.08325899E+00  1.54697485E-01
  1.43005753E+00  2.08325899E+00  1.54697485E-01  1.43005753E+00  2.08325899E+00
  1.54697485E-01  1.43005753E+00  2.08325899E+00  3.62580474E+00 -1.52201270E+00
  3.54708628E+00  3.62580474E+00 -1.52201270E+00  3.54708628E+00  3.62580474E+00
 -1.52201270E+00  3.54708628E+00  3.62580474E+00 -1.52201270E+00  3.54708628E+00
  3.62580474E+00 -1.52201270E+00  3.54708628E+00  4.37883293E+00  1.13144761E+00
 -6.70742236E-01  4.37883293E+00  1.13144761E+00 -6.70742236E-01  4.37883293E+00
  1.13144761E+00 -6.70742236E-01  4.37883293E+00  1.13144761E+00 -6.70742236E-01
  4.37883293E+00  1.13144761E+00 -6.70742236E-01  3.12860309E+00  2.06679357E+00
 -2.66535670E+00  3.12860309E+00  2.06679357E+00 -2.66535670E+00  3.12860309E+00
  2.06679357E+00 -2.66535670E+00  3.12860309E+00  2.06679357E+00 -2.66535670E+00
  3.12860309E+00  2.06679357E+00 -2.66535670E+00  6.12434493E+00 -4.94721092E-01
 -1.48192390E+00  6.12434493E+00 -4.94721092E-01 -1.48192390E+00  6.12434493E+00
 -4.94721092E-01 -1.48192390E+00  6.12434493E+00 -4.94721092E-01 -1.48192390E+00
  6.12434493E+00 -4.94721092E-01 -1.48192390E+00  5.50772417E+00  3.02801184E+00
  5.51669647E-01  5.50772417E+00  3.02801184E+00  5.51669647E-01  5.50772417E+00
  3.02801184E+00  5.51669647E-01  5.50772417E+00  3.02801184E+00  5.51669647E-01
  5.50772417E+00  3.02801184E+00  5.51669647E-01 -2.52031909E+00 -1.32431087E+00
 -4.93037201E-01 -2.52031909E+00 -1.32431087E+00 -4.93037201E-01 -2.52031909E+00
 -1.32431087E+00 -4.93037201E-01 -2.52031909E+00 -1.32431087E+00 -4.93037201E-01
 -2.52031909E+00 -1.32431087E+00 -4.93037201E-01 -2.52031909E+00 -1.32431087E+00
 -4.93037201E-01 -2.52031909E+00 -1.32431087E+00 -4.93037201E-01 -2.52031909E+00
 -1.32431087E+00 -4.93037201E-01 -6.83046125E+00  1.80223228E+00  2.95355515E-01
 -6.83046125E+00  1.80223228E+00  2.95355515E-01 -6.83046125E+00  1.80223228E+00
  2.95355515E-01 -6.83046125E+00  1.80223228E+00  2.95355515E-01 -6.83046125E+00
  1.80223228E+00  2.95355515E-01 -6.09672855E+00 -1.24109534E-01 -7.08962547E-01
 -6.09672855E+00 -1.24109534E-01 -7.08962547E-01 -6.09672855E+00 -1.24109534E-01
 -7.08962547E-01 -6.09672855E+00 -1.24109534E-01 -7.08962547E-01 -6.09672855E+00
 -1.24109534E-01 -7.08962547E-01 -7.60301156E+00  3.57095228E+00  1.19059790E+00
 -7.60301156E+00  3.57095228E+00  1.19059790E+00 -7.60301156E+00  3.57095228E+00
  1.19059790E+00 -7.60301156E+00  3.57095228E+00  1.19059790E+00 -7.60301156E+00
  3.57095228E+00  1.19059790E+00
Overlap Matrix                             R   N=       25200
  1.00000000E+00  2.62729640E-01  1.00000000E+00  2.89392091E-16  1.80722010E-16
  1.00000000E+00 -8.01203066E-17  5.10394337E-17 -3.10973771E-31  1.00000000E+00
  3.88965108E-16 -1.87199915E-16  1.16917120E-30 -1.95038538E-31  1.00000000E+00
  1.02304916E-02  3.22819433E-01  1.20569693E-17  2.52397862E-17  9.56997438E-17
  1.00000000E+00  3.12536254E-17 -1.16335103E-19  3.10508414E-01  0.00000000E+00
  0.00000000E+00  2.33526827E-16  1.00000000E+00 -1.81570054E-19  2.70806764E-17
  0.00000000E+00  3.10508414E-01 -4.74133841E-33 -2.98615499E-17 -1.08369473E-32
  1.00000000E+00  8.66833860E-18 -5.30729295E-17  0.00000000E+00 -4.74133841E-33
  3.10508414E-01  1.19372933E-16  4.33477890E-32 -5.41847363E-33  1.00000000E+00
  3.23138907E-02  2.49081598E-01 -1.49591549E-16  3.46944527E-17 -1.66614647E-16
  8.28320586E-01 -5.37525629E-18 -1.66405719E-17  0.00000000E+00  1.00000000E+00
  8.33810205E-20 -3.11186749E-17  6.96293228E-02 -5.68486223E-33  2.27394489E-32
 -1.96284861E-17  6.33490366E-01  0.00000000E+00  0.00000000E+00  3.04020502E-16
  1.00000000E+00 -6.97635672E-19  9.30094804E-18 -5.68486223E-33  6.96293228E-02
 -4.75309549E-33 -1.28006137E-18  0.00000000E+00  6.33490366E-01  0.00000000E+00
  0.00000000E+00  0.00000000E+00  1.00000000E+00  4.13061808E-18 -3.87528918E-17
  2.27394489E-32 -4.75309549E-33  6.96293228E-02  0.00000000E+00  0.00000000E+00
  0.00000000E+00  6.33490366E-01  0.00000000E+00  0.00000000E+00  0.00000000E+00
  1.00000000E+00  1.46172057E-02  1.17472351E-01  0.00000000E+00  5.98534886E-18
  1.01485422E-19  4.96335175E-01  0.00000000E+00 -2.36517736E-17  9.46070944E-17
  8.16825030E-01  0.00000000E+00  0.00000000E+00  0.00000000E+00  1.00000000E+00
  2.21027121E-20  0.00000000E+00  1.98155464E-02  0.00000000E+00  0.00000000E+00
  0.00000000E+00  2.55849977E-01  0.00000000E+00  0.00000000E+00  0.00000000E+00
  7.13753738E-01  0.00000000E+00  0.00000000E+00  0.00000000E+00  1.00000000E+00
 -2.57052247E-21  1.57199177E-18  0.00000000E+00  1.98155464E-02 -2.26746923E-36
 -1.13875756E-17  0.00000000E+00  2.55849977E-01 -2.11378809E-33  0.00000000E+00
  0.00000000E+00  7.13753738E-01  0.00000000E+00  0.00000000E+00  0.00000000E+00
  1.00000000E+00  4.75741429E-19 -5.80664715E-22  0.00000000E+00 -2.26746923E-36
  1.98155464E-02  4.55503024E-17  0.00000000E+00 -2.11378809E-33  2.55849977E-01
  0.00000000E+00  0.00000000E+00  0.00000000E+00  7.13753738E-01  0.00000000E+00
  0.00000000E+00  0.00000000E+00  1.00000000E+00  0.00000000E+00  0.00000000E+00
  1.56342857E-17 -6.84770204E-19  1.02881648E-17  0.00000000E+00  0.00000000E+00
  1.54354047E-17  1.23483237E-16  0.00000000E+00  0.00000000E+00 -2.26884496E-17
 -1.81507597E-16  0.00000000E+00  0.00000000E+00  0.00000000E+00 -6.25925326E-17
  1.00000000E+00  1.71458197E-35  0.00000000E+00  8.90981209E-18  0.00000000E+00
 -2.70793772E-17  0.00000000E+00  1.06939621E-16  0.00000000E+00  0.00000000E+00
  0.00000000E+00 -1.57190190E-16  0.00000000E+00  0.00000000E+00  0.00000000E+00
 -5.42067234E-17  0.00000000E+00  0.00000000E+00  0.00000000E+00  1.00000000E+00
 -2.21130860E-36 -2.20434161E-32  0.00000000E+00  8.90981209E-18  1.18605678E-18
 -2.09738152E-33  0.00000000E+00  1.06939621E-16 -2.67349051E-17 -1.95565810E-32
  0.00000000E+00 -1.57190190E-16  3.92975475E-17  0.00000000E+00  0.00000000E+00
 -5.42067234E-17  0.00000000E+00 -1.85026179E-32  0.00000000E+00  1.00000000E+00
  0.00000000E+00  0.00000000E+00 -2.70793772E-17 -1.18605678E-18  0.00000000E+00
  0.00000000E+00  0.00000000E+00  2.67349051E-17  0.00000000E+00  0.00000000E+00
  0.00000000E+00 -3.92975475E-17  0.00000000E+00  0.00000000E+00  0.00000000E+00
  0.00000000E+00  0.00000000E+00  0.00000000E+00  0.00000000E+00  3.20474743E-32
  1.00000000E+00 -4.28645493E-36  2.27621389E-36  1.18605678E-18 -2.70793772E-17
  0.00000000E+00  0.00000000E+00 -2.67349051E-17  0.00000000E+00  0.00000000E+00
  0.00000000E+00  3.92975475E-17  0.00000000E+00  0.00000000E+00  0.00000000E+00
  0.00000000E+00  0.00000000E+00  0.00000000E+00  0.00000000E+00 -3.20474743E-32
  0.00000000E+00  0.00000000E+00  1.00000000E+00  1.08506836E-18  9.77673098E-07
 -1.37037412E-06 -2.28816329E-06 -2.02697611E-06  1.32498914E-02 -1.28133274E-02
 -2.13948767E-02 -1.89527138E-02  3.48073196E-02 -2.78577295E-02 -4.65150596E-02
 -4.12055010E-02  2.99288520E-02 -1.42123874E-02 -2.37309378E-02 -2.10221203E-02
  1.01929750E-03  8.88687032E-03  1.48387291E-02 -5.37132580E-03  1.00319931E-02
  1.00000000E+00  4.57537961E-05  2.33530135E-03 -1.56037918E-03 -2.60542162E-03
 -2.30802032E-03  1.07806722E-01 -8.53840782E-02 -1.42568887E-01 -1.26295063E-01
  2.07897446E-01 -1.50338352E-01 -2.51025389E-01 -2.22371572E-01  1.81572703E-01
 -8.31420167E-02 -1.38825236E-01 -1.22978739E-01  8.53169392E-03  7.43846203E-02
  1.24202694E-01 -4.49589131E-02  8.39694935E-02  2.33689906E-01  1.00000000E+00
  6.80897329E-05  2.44462745E-03 -8.14422875E-04 -2.76974746E-03 -2.45358886E-03
  4.85201647E-02  1.17722936E-02 -7.00116258E-02 -6.20200026E-02  3.93888862E-02
  6.81637788E-02 -4.82440967E-02 -4.27371735E-02  1.26665364E-02  4.72586025E-02
 -9.73149908E-03 -8.62067679E-03  2.39682429E-02  6.79669765E-03  8.80161206E-02
 -6.29023665E-02  7.67249005E-03 -9.23290933E-17 -1.90377162E-16  1.00000000E+00
  1.13691892E-04  4.08188296E-03 -2.76974746E-03 -3.78037706E-03 -4.09684615E-03
  8.10158757E-02 -7.00116258E-02 -6.31989004E-02 -1.03557044E-01  6.57690494E-02
 -4.82440967E-02  1.65021085E-02 -7.13598059E-02  2.11497744E-02 -9.73149908E-03
  3.68377317E-02 -1.43942562E-02  4.00206431E-02  8.80161206E-02  1.01047811E-01
 -1.36553581E-03  6.83152130E-02  1.08506731E-16  3.89976108E-16 -3.05119016E-31
  1.00000000E+00  1.00714294E-04  3.61594791E-03 -2.45358886E-03 -4.09684615E-03
 -2.78483253E-03  7.17681494E-02 -6.20200026E-02 -1.03557044E-01 -3.80342627E-02
  5.82617039E-02 -4.27371735E-02 -7.13598059E-02  3.38427316E-02  1.87355892E-02
 -8.62067679E-03 -1.43942562E-02  4.03355743E-02 -4.40762558E-02  4.69270611E-02
  7.83558130E-02 -4.71255565E-02  8.80161206E-02 -1.81924881E-17 -1.73079592E-17
 -6.13547459E-33  1.22709492E-32  1.00000000E+00  6.32715433E-03  5.52832512E-02
 -1.35827665E-02 -2.26796370E-02 -2.00908225E-02  2.88832276E-01 -1.49702739E-01
 -2.49964083E-01 -2.21431411E-01  4.43334361E-01 -2.50943745E-01 -4.19009856E-01
 -3.71181101E-01  4.11227752E-01 -1.70642567E-01 -2.84928073E-01 -2.52404363E-01
  9.34813811E-03  8.15028892E-02  1.36088325E-01 -4.92612759E-02  9.20049910E-02
  1.67279760E-01  7.63640773E-01 -8.18317711E-18  0.00000000E+00  0.00000000E+00
  1.00000000E+00  7.73353477E-03  6.13723490E-02  6.86801834E-03 -2.53455826E-02
 -2.24524582E-02  1.94933568E-01  1.34518883E-01 -1.81128167E-01 -1.60452915E-01
  1.65307471E-01  3.13759214E-01 -1.56237517E-01 -1.38403460E-01  6.60888722E-02
  2.49561162E-01 -4.57911095E-02 -4.05641876E-02  5.97761683E-02 -6.13440242E-02
  1.18468879E-01 -1.32323614E-01 -6.92485439E-02  1.76868652E-17  1.68597508E-18
  5.01520641E-01  0.00000000E+00  0.00000000E+00  0.00000000E+00  1.00000000E+00
  1.29129630E-02  1.02475633E-01 -2.53455826E-02 -2.02730253E-02 -3.74896823E-02
  3.25487637E-01 -1.81128167E-01 -5.94402605E-02 -2.67914041E-01  2.76019870E-01
 -1.56237517E-01  1.46453954E-01 -2.31097268E-01  1.10350983E-01 -4.57911095E-02
  2.00526247E-01 -6.77314928E-02  9.98104326E-02  1.18468879E-01  6.55170967E-02
  7.77376456E-02  4.42940266E-02  0.00000000E+00  0.00000000E+00  0.00000000E+00
  5.01520641E-01  0.00000000E+00  0.00000000E+00  0.00000000E+00  1.00000000E+00
  1.14389859E-02  9.07783381E-02 -2.24524582E-02 -3.74896823E-02 -1.11629326E-02
  2.88334171E-01 -1.60452915E-01 -2.67914041E-01  5.66356566E-03  2.44513006E-01
 -1.38403460E-01 -2.31097268E-01  2.02611206E-01  9.77547394E-02 -4.05641876E-02
 -6.77314928E-02  2.16985180E-01 -1.40723745E-01  1.55057732E-02  2.58905509E-02
 -6.34305604E-02  1.18468879E-01 -3.36707223E-18  0.00000000E+00  0.00000000E+00
  0.00000000E+00  5.01520641E-01  0.00000000E+00  0.00000000E+00  0.00000000E+00
  1.00000000E+00  1.24757701E-02  1.00018129E-01 -8.26225535E-03 -1.37957869E-02
 -1.22210380E-02  4.13867969E-01 -9.62591692E-02 -1.60727420E-01 -1.42380853E-01
  6.48988381E-01 -2.20716866E-01 -3.68538942E-01 -3.26471295E-01  7.19505980E-01
 -2.32104034E-01 -3.87552509E-01 -3.43314518E-01  2.23219825E-03  1.94616944E-02
  3.24958957E-02 -1.17628701E-02  2.19694422E-02  7.23158236E-02  4.09528899E-01
 -6.32583673E-17  0.00000000E+00  0.00000000E+00  7.86651414E-01  9.07630538E-17
  0.00000000E+00  0.00000000E+00  1.00000000E+00  8.57778145E-03  6.66544873E-02
  1.84568873E-02 -9.21080300E-03 -8.15941665E-03  2.26819606E-01  2.25127972E-01
 -9.04516464E-02 -8.01268543E-02  2.59902119E-01  5.52026274E-01 -1.47589780E-01
 -1.30742836E-01  1.60687408E-01  6.21621760E-01 -8.65521758E-02 -7.66724969E-02
  2.34029684E-02 -4.45972819E-02  1.98222293E-02 -4.53519848E-02 -5.03438904E-02
  1.59959968E-18 -2.84002636E-17  1.68056960E-01  0.00000000E+00  0.00000000E+00
  5.07751141E-17  6.70353497E-01  0.00000000E+00  0.00000000E+00  6.45458880E-17
  1.00000000E+00  1.43226323E-02  1.11295411E-01 -9.21080300E-03  8.59359829E-03
 -1.36240734E-02  3.78728908E-01 -9.04516464E-02  1.28268802E-01 -1.33790710E-01
  4.33967979E-01 -1.47589780E-01  3.93981351E-01 -2.18306047E-01  2.68305583E-01
 -8.65521758E-02  5.28938296E-01 -1.28022844E-01  3.90767836E-02  1.98222293E-02
 -2.33708615E-02  5.17642881E-02 -1.58002966E-02 -7.76212243E-18  0.00000000E+00
  0.00000000E+00  1.68056960E-01  0.00000000E+00  0.00000000E+00  0.00000000E+00
  6.70353497E-01  0.00000000E+00  0.00000000E+00  0.00000000E+00  1.00000000E+00
  1.26877455E-02  9.85913637E-02 -8.15941665E-03 -1.36240734E-02  1.19042844E-02
  3.35498106E-01 -8.01268543E-02 -1.33790710E-01  1.60780301E-01  3.84431798E-01
 -1.30742836E-01 -2.18306047E-01  4.47030302E-01  2.37679282E-01 -7.66724969E-02
 -1.28022844E-01  5.60048188E-01 -6.31904710E-02 -2.06171512E-02 -3.44252038E-02
 -1.06132102E-02  1.98222293E-02 -1.69169470E-19  0.00000000E+00  0.00000000E+00
  0.00000000E+00  1.68056960E-01  0.00000000E+00  0.00000000E+00  0.00000000E+00
  6.70353497E-01  0.00000000E+00  0.00000000E+00  0.00000000E+00  1.00000000E+00
  1.36050237E-04  1.98729852E-03 -3.55300809E-03 -5.93258625E-03  5.26253750E-03
  8.34300897E-03 -4.29955029E-02 -7.17911480E-02  9.25659334E-02  2.87917917E-03
 -2.61818612E-02 -4.37168016E-02  6.84081214E-02  3.59294380E-04 -5.28775437E-03
 -8.82915492E-03  1.49185044E-02 -1.53678229E-01 -2.92368170E-02 -4.88177718E-02
 -5.76597890E-02  1.07690844E-01  0.00000000E+00  0.00000000E+00  0.00000000E+00
  8.14400261E-17  0.00000000E+00  0.00000000E+00  8.06516212E-17 -3.22606485E-16
  8.06516212E-17  0.00000000E+00  0.00000000E+00 -1.21548149E-16  3.03870372E-17
  1.00000000E+00  1.18617068E-03  1.73265060E-02 -4.23921956E-03 -1.72179072E-02
 -1.11470864E-02  7.27395475E-02  2.21256946E-02 -1.13599951E-01 -3.96782907E-02
  2.51024769E-02  4.40823513E-02 -2.96744539E-02  1.55305198E-02  3.13255214E-03
  1.17060238E-02 -2.37574610E-03  6.77143726E-03 -2.92368170E-02  4.78026886E-04
  9.79500904E-02 -1.36817833E-01  9.87134470E-04  0.00000000E+00  0.00000000E+00
  0.00000000E+00  0.00000000E+00  0.00000000E+00 -1.59681112E-32  6.98463528E-17
 -7.36953884E-48 -1.39692706E-16  0.00000000E+00  2.63159462E-17  0.00000000E+00
  0.00000000E+00  0.00000000E+00  1.00000000E+00  1.98059214E-03  2.89306944E-02
 -1.72179072E-02 -2.26768297E-02 -1.86126938E-02  1.21455856E-01 -1.13599951E-01
 -9.95215867E-02 -6.62522786E-02  4.19145146E-02 -2.96744539E-02  1.23057825E-02
  2.59318713E-02  5.23053572E-03 -2.37574610E-03  9.16198171E-03  1.13065140E-02
 -4.88177718E-02  9.79500904E-02  1.05366824E-01  1.18523595E-02  1.30310683E-01
  0.00000000E+00  0.00000000E+00  0.00000000E+00  0.00000000E+00 -1.41058263E-16
  6.38724448E-32 -7.36953884E-48  6.98463528E-17  5.58770823E-16  3.55597495E-32
  0.00000000E+00  2.63159462E-17  2.10527569E-16  0.00000000E+00  0.00000000E+00
  1.00000000E+00 -7.16935092E-04 -1.04723379E-02  1.03379879E-02  3.55168638E-03
  9.21880507E-03 -4.39646123E-02  1.02075486E-01 -3.31169235E-02  6.08236406E-02
 -1.51722234E-02  5.25592853E-02 -5.18889847E-02  1.58882844E-02 -1.89335025E-03
  9.73597186E-03 -1.33846486E-02  1.27202104E-03 -5.76597890E-02 -1.36817833E-01
  1.18523595E-02 -9.68276136E-02 -7.32172853E-02  0.00000000E+00  0.00000000E+00
  0.00000000E+00  1.41058263E-16  0.00000000E+00  0.00000000E+00 -1.39692706E-16
 -5.58770823E-16  0.00000000E+00  0.00000000E+00  0.00000000E+00 -2.10527569E-16
  0.00000000E+00  0.00000000E+00  0.00000000E+00  0.00000000E+00  1.00000000E+00
  1.33901539E-03  1.95591229E-02 -4.78546664E-03 -1.53310838E-02 -1.72179072E-02
  8.21124439E-02  2.49767137E-02 -6.72833815E-02 -1.13599951E-01  2.83370711E-02
  4.97626081E-02  8.31954842E-03 -2.96744539E-02  3.53619895E-03  1.32144102E-02
  6.19412462E-03 -2.37574610E-03  1.07690844E-01  9.87134470E-04  1.30310683E-01
 -7.32172853E-02  7.17903194E-04 -3.41511838E-35  0.00000000E+00 -1.41058263E-16
  0.00000000E+00  0.00000000E+00 -1.27744890E-31  5.58770823E-16 -1.39692706E-16
 -7.36953884E-48  0.00000000E+00  2.10527569E-16  0.00000000E+00  0.00000000E+00
  0.00000000E+00  0.00000000E+00  0.00000000E+00  0.00000000E+00  1.00000000E+00
  1.15602821E-17  2.03695121E-06 -4.74727468E-06  4.62923814E-06  1.41204233E-06
  1.56701404E-02 -2.52568327E-02  2.46288452E-02  7.51246123E-03  3.69214956E-02
 -4.90227721E-02  4.78038667E-02  1.45814671E-02  3.05508568E-02 -2.40681438E-02
  2.34697119E-02  7.15889435E-03 -1.15141385E-02 -6.68782803E-03  6.52154144E-03
  5.52103966E-04 -2.19253686E-02  2.08724497E-28  2.86694720E-09 -2.49529715E-09
  1.24482815E-08  7.46938830E-09  6.43263752E-04 -5.05336560E-04  2.52097099E-03
  1.51266753E-03  1.22036598E-02 -5.48709644E-03  2.73734617E-02  1.64249993E-02
 -2.62212450E-07 -3.41307596E-07  1.70268019E-06 -1.36181020E-06 -5.68814052E-07
  1.00000000E+00  7.55524002E-05  3.31975614E-03 -3.69615754E-03  3.60425604E-03
  1.09939518E-03  1.22616706E-01 -1.62633542E-01  1.58589811E-01  4.83741645E-02
  2.19274007E-01 -2.63048962E-01  2.56508496E-01  7.82420009E-02  1.85210067E-01
 -1.40694188E-01  1.37195959E-01  4.18484632E-02 -8.63230745E-02 -5.01395633E-02
  4.88928900E-02  4.13919910E-03 -1.64377493E-01  2.86694720E-09  2.65344879E-05
 -1.34338129E-05  6.70172225E-05  4.02125915E-05  8.61160753E-03 -5.48416979E-03
  2.73588615E-02  1.64162387E-02  7.85004190E-02 -3.27773327E-02  1.63516182E-01
  9.81152185E-02 -1.15900129E-04 -1.50860855E-04  7.52599098E-04 -6.01931670E-04