Jobname.Temp
SP        U                             non-standard        
Number of atoms                            I               12
Charge                                     I                0
Multiplicity                               I                1
Number of electrons                        I              114
Number of alpha electrons                  I               57
Number of beta electrons                   I               57
Atomic numbers                             I   N=          12
          16           8           8           8           6           9
           9           9          29           7           8           7
Current cartesian coordinates              R   N=          36
  2.09434378E+00 -4.97281033E-01  1.49159607E+00  9.33160574E-01 -2.47238565E+00
 -2.84169947E-01  1.16284486E-01  1.41148648E+00  2.06849066E+00  3.58164205E+00
 -1.53763902E+00  3.54964664E+00  4.36740285E+00  1.14147644E+00 -6.45951060E-01
  3.13486459E+00  2.08045605E+00 -2.64968020E+00  6.12886452E+00 -4.73255546E-01
 -1.44517488E+00  5.47418748E+00  3.03731371E+00  5.97657256E-01 -2.52838983E+00
 -1.35255061E+00 -5.38458449E-01 -6.74985239E+00  1.83928552E+00  3.42148710E-01
 -6.08779009E+00 -8.96076948E-02 -7.07499061E-01 -7.45431496E+00  3.61349932E+00
  1.28119024E+00
Nuclear charges                            R   N=          12
  1.60000000E+01  8.00000000E+00  8.00000000E+00  8.00000000E+00  6.00000000E+00
  9.00000000E+00  9.00000000E+00  9.00000000E+00  2.90000000E+01  7.00000000E+00
  8.00000000E+00  7.00000000E+00
Number of basis functions                  I              224
Number of contracted shells                I               64
Number of primitive shells                 I              156
Highest angular momentum                   I                2
Largest degree of contraction              I                6
Shell types                                I   N=          64
           0          -1          -1          -1          -1          -2
           0          -1          -1          -1          -2           0
          -1          -1          -1          -2           0          -1
          -1          -1          -2           0          -1          -1
          -1          -2           0          -1          -1          -1
          -2           0          -1          -1          -1          -2
           0          -1          -1          -1          -2           0
           0           0           1           1           1          -2
          -2           0          -1          -1          -1          -2
           0          -1          -1          -1          -2           0
          -1          -1          -1          -2
Number of primitives per shell             I   N=          64
           6           6           3           1           1           1
           6           3           1           1           1           6
           3           1           1           1           6           3
           1           1           1           6           3           1
           1           1           6           3           1           1
           1           6           3           1           1           1
           6           3           1           1           1           3
           4           1           3           1           1           4
           1           6           3           1           1           1
           6           3           1           1           1           6
           3           1           1           1
Shell to atom map                          I   N=          64
           1           1           1           1           1           1
           2           2           2           2           2           3
           3           3           3           3           4           4
           4           4           4           5           5           5
           5           5           6           6           6           6
           6           7           7           7           7           7
           8           8           8           8           8           9
           9           9           9           9           9           9
           9          10          10          10          10          10
          11          11          11          11          11          12
          12          12          12          12
Primitive exponents                        R   N=         156
  2.19171000E+04  3.30149000E+03  7.54146000E+02  2.12711000E+02  6.79896000E+01
  2.30515000E+01  4.23735000E+02  1.00710000E+02  3.21599000E+01  1.18079000E+01
  4.63110000E+00  1.87025000E+00  2.61584000E+00  9.22167000E-01  3.41287000E-01
  1.17167000E-01  4.05000000E-02  6.50000000E-01  5.48467170E+03  8.25234950E+02
  1.88046960E+02  5.29645000E+01  1.68975700E+01  5.79963530E+00  1.55396160E+01
  3.59993360E+00  1.01376180E+00  2.70005800E-01  8.45000000E-02  8.00000000E-01
  5.48467170E+03  8.25234950E+02  1.88046960E+02  5.29645000E+01  1.68975700E+01
  5.79963530E+00  1.55396160E+01  3.59993360E+00  1.01376180E+00  2.70005800E-01
  8.45000000E-02  8.00000000E-01  5.48467170E+03  8.25234950E+02  1.88046960E+02
  5.29645000E+01  1.68975700E+01  5.79963530E+00  1.55396160E+01  3.59993360E+00
  1.01376180E+00  2.70005800E-01  8.45000000E-02  8.00000000E-01  3.04752490E+03
  4.57369510E+02  1.03948690E+02  2.92101550E+01  9.28666300E+00  3.16392700E+00
  7.86827240E+00  1.88128850E+00  5.44249300E-01  1.68714400E-01  4.38000000E-02
  8.00000000E-01  7.00171309E+03  1.05136609E+03  2.39285690E+02  6.73974453E+01
  2.15199573E+01  7.40310130E+00  2.08479528E+01  4.80830834E+00  1.34406986E+00
  3.58151390E-01  1.07600000E-01  8.00000000E-01  7.00171309E+03  1.05136609E+03
  2.39285690E+02  6.73974453E+01  2.15199573E+01  7.40310130E+00  2.08479528E+01
  4.80830834E+00  1.34406986E+00  3.58151390E-01  1.07600000E-01  8.00000000E-01
  7.00171309E+03  1.05136609E+03  2.39285690E+02  6.73974453E+01  2.15199573E+01
  7.40310130E+00  2.08479528E+01  4.80830834E+00  1.34406986E+00  3.58151390E-01
  1.07600000E-01  8.00000000E-01  8.17600000E+00  2.56800000E+00  9.58700000E-01
  8.17600000E+00  2.56800000E+00  9.58700000E-01  1.15300000E-01  3.96000000E-02
  2.56300000E+01  3.16600000E+00  1.02300000E+00  8.60000000E-02  2.40000000E-02
  4.13400000E+01  1.14200000E+01  3.83900000E+00  1.23000000E+00  3.10200000E-01
  4.17351100E+03  6.27457900E+02  1.42902100E+02  4.02343300E+01  1.28202100E+01
  4.39043700E+00  1.16263580E+01  2.71628000E+00  7.72218000E-01  2.12031300E-01
  6.39000000E-02  8.00000000E-01  5.48467170E+03  8.25234950E+02  1.88046960E+02
  5.29645000E+01  1.68975700E+01  5.79963530E+00  1.55396160E+01  3.59993360E+00
  1.01376180E+00  2.70005800E-01  8.45000000E-02  8.00000000E-01  4.17351100E+03
  6.27457900E+02  1.42902100E+02  4.02343300E+01  1.28202100E+01  4.39043700E+00
  1.16263580E+01  2.71628000E+00  7.72218000E-01  2.12031300E-01  6.39000000E-02
  8.00000000E-01
Contraction coefficients                   R   N=         156
  1.86900121E-03  1.42300092E-02  6.96960451E-02  2.38487154E-01  4.83307312E-01
  3.38074219E-01 -2.37670050E-03 -3.16930066E-02 -1.13317024E-01  5.60900117E-02
  5.92255123E-01  4.55006095E-01 -2.50373114E-01  6.69567631E-02  1.05450627E+00
  1.00000000E+00  1.00000000E+00  1.00000000E+00  1.83109981E-03  1.39500985E-02
  6.84450927E-02  2.32714275E-01  4.70192950E-01  3.58520862E-01 -1.10777504E-01
 -1.48026305E-01  1.13076704E+00  1.00000000E+00  1.00000000E+00  1.00000000E+00
  1.83109981E-03  1.39500985E-02  6.84450927E-02  2.32714275E-01  4.70192950E-01
  3.58520862E-01 -1.10777504E-01 -1.48026305E-01  1.13076704E+00  1.00000000E+00
  1.00000000E+00  1.00000000E+00  1.83109981E-03  1.39500985E-02  6.84450927E-02
  2.32714275E-01  4.70192950E-01  3.58520862E-01 -1.10777504E-01 -1.48026305E-01
  1.13076704E+00  1.00000000E+00  1.00000000E+00  1.00000000E+00  1.83470016E-03
  1.40373012E-02  6.88426061E-02  2.32184421E-01  4.67941342E-01  3.62312032E-01
 -1.19332409E-01 -1.60854212E-01  1.14345648E+00  1.00000000E+00  1.00000000E+00
  1.00000000E+00  1.81962000E-03  1.39160800E-02  6.84053199E-02  2.33185760E-01
  4.71267439E-01  3.56618549E-01 -1.08506980E-01 -1.46451660E-01  1.12868858E+00
  1.00000000E+00  1.00000000E+00  1.00000000E+00  1.81962000E-03  1.39160800E-02
  6.84053199E-02  2.33185760E-01  4.71267439E-01  3.56618549E-01 -1.08506980E-01
 -1.46451660E-01  1.12868858E+00  1.00000000E+00  1.00000000E+00  1.00000000E+00
  1.81962000E-03  1.39160800E-02  6.84053199E-02  2.33185760E-01  4.71267439E-01
  3.56618549E-01 -1.08506980E-01 -1.46451660E-01  1.12868858E+00  1.00000000E+00
  1.00000000E+00  1.00000000E+00 -4.21025989E-01  7.38592381E-01  5.52569186E-01
  1.78766496E-01 -3.59227292E-01 -4.70482490E-01  1.08074068E+00  1.00000000E+00
 -4.89173002E-02  6.27285402E-01  4.71618802E-01  1.00000000E+00  1.00000000E+00
  4.65424016E-02  2.22782408E-01  4.53905916E-01  5.31476918E-01  1.00000000E+00
  1.83479944E-03  1.39949958E-02  6.85869792E-02  2.32240930E-01  4.69069858E-01
  3.60454891E-01 -1.14961023E-01 -1.69118034E-01  1.14585223E+00  1.00000000E+00
  1.00000000E+00  1.00000000E+00  1.83109981E-03  1.39500985E-02  6.84450927E-02
  2.32714275E-01  4.70192950E-01  3.58520862E-01 -1.10777504E-01 -1.48026305E-01
  1.13076704E+00  1.00000000E+00  1.00000000E+00  1.00000000E+00  1.83479944E-03
  1.39949958E-02  6.85869792E-02  2.32240930E-01  4.69069858E-01  3.60454891E-01
 -1.14961023E-01 -1.69118034E-01  1.14585223E+00  1.00000000E+00  1.00000000E+00
  1.00000000E+00
P(S=P) Contraction coefficients            R   N=         156
  0.00000000E+00  0.00000000E+00  0.00000000E+00  0.00000000E+00  0.00000000E+00
  0.00000000E+00  4.06100032E-03  3.06810024E-02  1.30452010E-01  3.27205026E-01
  4.52851036E-01  2.56042020E-01 -1.45109929E-02  3.10262847E-01  7.54482628E-01
  1.00000000E+00  1.00000000E+00  0.00000000E+00  0.00000000E+00  0.00000000E+00
  0.00000000E+00  0.00000000E+00  0.00000000E+00  0.00000000E+00  7.08742995E-02
  3.39752798E-01  7.27158595E-01  1.00000000E+00  1.00000000E+00  0.00000000E+00
  0.00000000E+00  0.00000000E+00  0.00000000E+00  0.00000000E+00  0.00000000E+00
  0.00000000E+00  7.08742995E-02  3.39752798E-01  7.27158595E-01  1.00000000E+00
  1.00000000E+00  0.00000000E+00  0.00000000E+00  0.00000000E+00  0.00000000E+00
  0.00000000E+00  0.00000000E+00  0.00000000E+00  7.08742995E-02  3.39752798E-01
  7.27158595E-01  1.00000000E+00  1.00000000E+00  0.00000000E+00  0.00000000E+00
  0.00000000E+00  0.00000000E+00  0.00000000E+00  0.00000000E+00  0.00000000E+00
  6.89990956E-02  3.16423980E-01  7.44308252E-01  1.00000000E+00  1.00000000E+00
  0.00000000E+00  0.00000000E+00  0.00000000E+00  0.00000000E+00  0.00000000E+00
  0.00000000E+00  0.00000000E+00  7.16287200E-02  3.45912100E-01  7.22469960E-01
  1.00000000E+00  1.00000000E+00  0.00000000E+00  0.00000000E+00  0.00000000E+00
  0.00000000E+00  0.00000000E+00  0.00000000E+00  0.00000000E+00  7.16287200E-02
  3.45912100E-01  7.22469960E-01  1.00000000E+00  1.00000000E+00  0.00000000E+00
  0.00000000E+00  0.00000000E+00  0.00000000E+00  0.00000000E+00  0.00000000E+00
  0.00000000E+00  7.16287200E-02  3.45912100E-01  7.22469960E-01  1.00000000E+00
  1.00000000E+00  0.00000000E+00  0.00000000E+00  0.00000000E+00  0.00000000E+00
  0.00000000E+00  0.00000000E+00  0.00000000E+00  0.00000000E+00  0.00000000E+00
  0.00000000E+00  0.00000000E+00  0.00000000E+00  0.00000000E+00  0.00000000E+00
  0.00000000E+00  0.00000000E+00  0.00000000E+00  0.00000000E+00  0.00000000E+00
  0.00000000E+00  0.00000000E+00  0.00000000E+00  0.00000000E+00  0.00000000E+00
  0.00000000E+00  6.75800232E-02  3.23907111E-01  7.40895255E-01  1.00000000E+00
  1.00000000E+00  0.00000000E+00  0.00000000E+00  0.00000000E+00  0.00000000E+00
  0.00000000E+00  0.00000000E+00  0.00000000E+00  7.08742995E-02  3.39752798E-01
  7.27158595E-01  1.00000000E+00  1.00000000E+00  0.00000000E+00  0.00000000E+00
  0.00000000E+00  0.00000000E+00  0.00000000E+00  0.00000000E+00  0.00000000E+00
  6.75800232E-02  3.23907111E-01  7.40895255E-01  1.00000000E+00  1.00000000E+00
  0.00000000E+00
Coordinates of each shell                  R   N=         192
  2.09434378E+00 -4.97281033E-01  1.49159607E+00  2.09434378E+00 -4.97281033E-01
  1.49159607E+00  2.09434378E+00 -4.97281033E-01  1.49159607E+00  2.09434378E+00
 -4.97281033E-01  1.49159607E+00  2.09434378E+00 -4.97281033E-01  1.49159607E+00
  2.09434378E+00 -4.97281033E-01  1.49159607E+00  9.33160574E-01 -2.47238565E+00
 -2.84169947E-01  9.33160574E-01 -2.47238565E+00 -2.84169947E-01  9.33160574E-01
 -2.47238565E+00 -2.84169947E-01  9.33160574E-01 -2.47238565E+00 -2.84169947E-01
  9.33160574E-01 -2.47238565E+00 -2.84169947E-01  1.16284486E-01  1.41148648E+00
  2.06849066E+00  1.16284486E-01  1.41148648E+00  2.06849066E+00  1.16284486E-01
  1.41148648E+00  2.06849066E+00  1.16284486E-01  1.41148648E+00  2.06849066E+00
  1.16284486E-01  1.41148648E+00  2.06849066E+00  3.58164205E+00 -1.53763902E+00
  3.54964664E+00  3.58164205E+00 -1.53763902E+00  3.54964664E+00  3.58164205E+00
 -1.53763902E+00  3.54964664E+00  3.58164205E+00 -1.53763902E+00  3.54964664E+00
  3.58164205E+00 -1.53763902E+00  3.54964664E+00  4.36740285E+00  1.14147644E+00
 -6.45951060E-01  4.36740285E+00  1.14147644E+00 -6.45951060E-01  4.36740285E+00
  1.14147644E+00 -6.45951060E-01  4.36740285E+00  1.14147644E+00 -6.45951060E-01
  4.36740285E+00  1.14147644E+00 -6.45951060E-01  3.13486459E+00  2.08045605E+00
 -2.64968020E+00  3.13486459E+00  2.08045605E+00 -2.64968020E+00  3.13486459E+00
  2.08045605E+00 -2.64968020E+00  3.13486459E+00  2.08045605E+00 -2.64968020E+00
  3.13486459E+00  2.08045605E+00 -2.64968020E+00  6.12886452E+00 -4.73255546E-01
 -1.44517488E+00  6.12886452E+00 -4.73255546E-01 -1.44517488E+00  6.12886452E+00
 -4.73255546E-01 -1.44517488E+00  6.12886452E+00 -4.73255546E-01 -1.44517488E+00
  6.12886452E+00 -4.73255546E-01 -1.44517488E+00  5.47418748E+00  3.03731371E+00
  5.97657256E-01  5.47418748E+00  3.03731371E+00  5.97657256E-01  5.47418748E+00
  3.03731371E+00  5.97657256E-01  5.47418748E+00  3.03731371E+00  5.97657256E-01
  5.47418748E+00  3.03731371E+00  5.97657256E-01 -2.52838983E+00 -1.35255061E+00
 -5.38458449E-01 -2.52838983E+00 -1.35255061E+00 -5.38458449E-01 -2.52838983E+00
 -1.35255061E+00 -5.38458449E-01 -2.52838983E+00 -1.35255061E+00 -5.38458449E-01
 -2.52838983E+00 -1.35255061E+00 -5.38458449E-01 -2.52838983E+00 -1.35255061E+00
 -5.38458449E-01 -2.52838983E+00 -1.35255061E+00 -5.38458449E-01 -2.52838983E+00
 -1.35255061E+00 -5.38458449E-01 -6.74985239E+00  1.83928552E+00  3.42148710E-01
 -6.74985239E+00  1.83928552E+00  3.42148710E-01 -6.74985239E+00  1.83928552E+00
  3.42148710E-01 -6.74985239E+00  1.83928552E+00  3.42148710E-01 -6.74985239E+00
  1.83928552E+00  3.42148710E-01 -6.08779009E+00 -8.96076948E-02 -7.07499061E-01
 -6.08779009E+00 -8.96076948E-02 -7.07499061E-01 -6.08779009E+00 -8.96076948E-02
 -7.07499061E-01 -6.08779009E+00 -8.96076948E-02 -7.07499061E-01 -6.08779009E+00
 -8.96076948E-02 -7.07499061E-01 -7.45431496E+00  3.61349932E+00  1.28119024E+00
 -7.45431496E+00  3.61349932E+00  1.28119024E+00 -7.45431496E+00  3.61349932E+00
  1.28119024E+00 -7.45431496E+00  3.61349932E+00  1.28119024E+00 -7.45431496E+00
  3.61349932E+00  1.28119024E+00
Overlap Matrix                             R   N=       25200
  1.00000000E+00  2.62729640E-01  1.00000000E+00 -3.97419216E-17  4.20743855E-16
  1.00000000E+00 -9.05556049E-19  5.27446954E-17 -3.10847281E-31  1.00000000E+00
  2.03021816E-16 -8.42249427E-19  3.31241658E-31 -1.92430919E-32  1.00000000E+00
  1.02304916E-02  3.22819433E-01  2.00261579E-16 -2.68026265E-17  5.43225521E-19
  1.00000000E+00 -6.14028246E-18  1.09397381E-16  3.10508414E-01  9.35843748E-33
 -4.77613718E-35  2.55462785E-16  1.00000000E+00 -3.22889011E-18  2.42439112E-17
  9.35843748E-33  3.10508414E-01 -3.67564312E-34 -4.93874110E-17  0.00000000E+00
  1.00000000E+00  6.11047170E-18  3.12204646E-18 -4.77613718E-35 -3.67564312E-34
  3.10508414E-01  3.06099922E-16  8.66955781E-32 -9.57852609E-33  1.00000000E+00
  3.23138907E-02  2.49081598E-01 -2.25455757E-17  3.12682563E-17 -1.07730595E-16
  8.28320586E-01 -5.37525629E-18  1.66405719E-17  0.00000000E+00  1.00000000E+00
  0.00000000E+00  1.26573901E-18  6.96293228E-02  0.00000000E+00  4.16653574E-33
 -1.96284861E-17  6.33490366E-01  0.00000000E+00  0.00000000E+00  3.04020502E-16
  1.00000000E+00 -1.11258803E-20  9.48058758E-18  0.00000000E+00  6.96293228E-02
 -1.91066438E-33  1.28006137E-18  0.00000000E+00  6.33490366E-01  0.00000000E+00
  0.00000000E+00  0.00000000E+00  1.00000000E+00  1.47086228E-18 -2.23914978E-17
  4.16653574E-33 -1.91066438E-33  6.96293228E-02  0.00000000E+00  0.00000000E+00
  0.00000000E+00  6.33490366E-01  1.52010251E-16  4.62142328E-32  0.00000000E+00
  1.00000000E+00  1.46172057E-02  1.17472351E-01  1.17189027E-16  2.55697593E-18
  1.01485422E-19  4.96335175E-01  1.89214189E-16 -2.39678791E-17  1.89214189E-16
  8.16825030E-01  0.00000000E+00  3.10414445E-17  0.00000000E+00  1.00000000E+00
 -1.46287801E-18  2.10263442E-17  1.98155464E-02  1.07437091E-33  0.00000000E+00
  9.11006048E-17  2.55849977E-01 -4.22757617E-33  3.38206094E-32  0.00000000E+00
  7.13753738E-01  0.00000000E+00  0.00000000E+00  0.00000000E+00  1.00000000E+00
 -1.18935357E-19  1.47422952E-18  1.07437091E-33  1.98155464E-02 -2.26746923E-36
 -1.20662236E-17 -4.22757617E-33  2.55849977E-01 -4.22757617E-33  1.82501643E-17
  0.00000000E+00  7.13753738E-01  0.00000000E+00  2.23428074E-17  0.00000000E+00
  1.00000000E+00 -3.53407294E-19 -5.80664715E-22  0.00000000E+00 -2.26746923E-36
  1.98155464E-02  9.11006048E-17  3.38206094E-32 -4.22757617E-33  2.55849977E-01
  0.00000000E+00  0.00000000E+00  0.00000000E+00  7.13753738E-01  0.00000000E+00
  0.00000000E+00  0.00000000E+00  1.00000000E+00  0.00000000E+00  0.00000000E+00
 -7.58035804E-17  7.78181730E-18  3.99827601E-17  0.00000000E+00 -2.74576492E-16
  3.38947479E-17  3.98059730E-16  0.00000000E+00  1.81507597E-16  0.00000000E+00
  0.00000000E+00  0.00000000E+00  0.00000000E+00  0.00000000E+00  0.00000000E+00
  1.00000000E+00  0.00000000E+00  9.54751462E-32  3.46260860E-17 -8.15726225E-48
  1.31295653E-16  2.50439983E-31  3.44729838E-16 -1.16218120E-47  4.75580436E-16
  0.00000000E+00  0.00000000E+00  0.00000000E+00 -3.14380380E-16  0.00000000E+00
  0.00000000E+00  0.00000000E+00  0.00000000E+00  0.00000000E+00  1.00000000E+00
  0.00000000E+00 -1.29359601E-32 -8.15726225E-48  3.46260860E-17 -1.34785029E-17
 -3.13049978E-32 -1.16218120E-47  3.44729838E-16 -5.87074254E-17  0.00000000E+00
  0.00000000E+00  0.00000000E+00  0.00000000E+00  0.00000000E+00  0.00000000E+00
  0.00000000E+00  0.00000000E+00  0.00000000E+00  0.00000000E+00  1.00000000E+00
  0.00000000E+00  0.00000000E+00  1.31295653E-16  1.34785029E-17  0.00000000E+00
  0.00000000E+00  4.75580436E-16  5.87074254E-17  0.00000000E+00  0.00000000E+00
 -3.14380380E-16  0.00000000E+00  0.00000000E+00  0.00000000E+00  0.00000000E+00
  0.00000000E+00  0.00000000E+00  0.00000000E+00  0.00000000E+00  0.00000000E+00
  1.00000000E+00 -4.28645493E-36 -2.38687865E-32 -1.34785029E-17  1.31295653E-16
 -8.15726225E-48 -6.26099956E-32 -5.87074254E-17  4.75580436E-16 -1.16218120E-47
  0.00000000E+00  0.00000000E+00 -3.14380380E-16  0.00000000E+00  0.00000000E+00
  0.00000000E+00  0.00000000E+00  0.00000000E+00  0.00000000E+00  0.00000000E+00
  0.00000000E+00  0.00000000E+00  1.00000000E+00  1.07243082E-18  9.74129766E-07
 -1.33725565E-06 -2.27459352E-06 -2.04502884E-06  1.32388928E-02 -1.25386028E-02
 -2.13274289E-02 -1.91749456E-02  3.47971575E-02 -2.72756788E-02 -4.63943319E-02
 -4.17119568E-02  2.99258036E-02 -1.39180845E-02 -2.36738464E-02 -2.12845495E-02
  1.30256751E-03  8.79988426E-03  1.49680877E-02 -5.44701862E-03  9.78771516E-03
  1.00000000E+00  4.56403074E-05  2.33124354E-03 -1.52553608E-03 -2.59484751E-03
 -2.33296100E-03  1.07737970E-01 -8.35675155E-02 -1.42143449E-01 -1.27797538E-01
  2.07842604E-01 -1.47201400E-01 -2.50380959E-01 -2.25111113E-01  1.81554870E-01
 -8.14206510E-02 -1.38491758E-01 -1.24514396E-01  1.09086451E-02  7.36966134E-02
  1.25353622E-01 -4.56172846E-02  8.19694258E-02  2.33689906E-01  1.00000000E+00
  6.65211100E-05  2.39003781E-03 -7.45401758E-04 -2.70157536E-03 -2.42891728E-03
  4.74890924E-02  1.34746532E-02 -6.83603466E-02 -6.14610385E-02  3.85668476E-02
  6.93238065E-02 -4.71284020E-02 -4.23719403E-02  1.24042834E-02  4.74916505E-02
 -9.50805555E-03 -8.54844947E-03  2.51054199E-02  4.69957501E-03  8.69953872E-02
 -6.20295894E-02  5.22712575E-03  5.89448610E-17 -7.60954585E-17  1.00000000E+00
  1.13148511E-04  4.06531431E-03 -2.70157536E-03 -3.75234077E-03 -4.13144601E-03
  8.07761643E-02 -6.83603466E-02 -6.26125794E-02 -1.04541626E-01  6.55999486E-02
 -4.71284020E-02  1.68684012E-02 -7.20721884E-02  2.10989595E-02 -9.50805555E-03
  3.69088833E-02 -1.45404118E-02  4.27028487E-02  8.69953872E-02  1.01528199E-01
 -2.18942147E-03  6.63898496E-02  3.08883824E-16  6.66105837E-16 -4.90837967E-32
  1.00000000E+00  1.01728932E-04  3.65502008E-03 -2.42891728E-03 -4.13144601E-03
 -2.87159674E-03  7.26237825E-02 -6.14610385E-02 -1.04541626E-01 -4.03263356E-02
  5.89792353E-02 -4.23719403E-02 -7.20721884E-02  3.22327917E-02  1.89695346E-02
 -8.54844947E-03 -1.45404118E-02  4.00086166E-02 -4.20535489E-02  4.78441231E-02
  8.13800507E-02 -4.84143118E-02  8.69953872E-02  6.53288819E-18  1.35182779E-16
 -2.36715444E-32  7.73991592E-32  1.00000000E+00  6.32287264E-03  5.52492711E-02
 -1.32946253E-02 -2.26133788E-02 -2.03311103E-02  2.88724334E-01 -1.46558875E-01
 -2.49288062E-01 -2.24128518E-01  4.43242816E-01 -2.45721612E-01 -4.17958069E-01
 -3.75775405E-01  4.11191151E-01 -1.67111135E-01 -2.84246252E-01 -2.55558532E-01
  1.19584736E-02  8.07890438E-02  1.37417431E-01 -5.00074106E-02  8.98580169E-02
  1.67279760E-01  7.63640773E-01  1.19628448E-16  2.40965892E-16  6.39058125E-17
  1.00000000E+00  7.56903847E-03  6.00706063E-02  7.48258232E-03 -2.47507175E-02
 -2.22527368E-02  1.90846189E-01  1.38888657E-01 -1.76914649E-01 -1.59059434E-01
  1.61867428E-01  3.17510439E-01 -1.52633714E-01 -1.37229067E-01  6.47211692E-02
  2.50657504E-01 -4.47401402E-02 -4.02247153E-02  6.07454842E-02 -6.50153452E-02
  1.17160686E-01 -1.30190647E-01 -7.23136420E-02  8.00797534E-18  9.60057074E-17
  5.01520641E-01  0.00000000E+00  6.90130537E-33  0.00000000E+00  1.00000000E+00
  1.28744910E-02  1.02176583E-01 -2.47507175E-02 -2.00657508E-02 -3.78506018E-02
  3.24618187E-01 -1.76914649E-01 -5.80229556E-02 -2.70550780E-01  2.75327012E-01
 -1.52633714E-01  1.47624277E-01 -2.33418605E-01  1.10086918E-01 -4.47401402E-02
  2.00860309E-01 -6.84198845E-02  1.03324510E-01  1.17160686E-01  6.53882119E-02
  7.64046579E-02  4.27577128E-02  0.00000000E+00 -3.15903933E-17  0.00000000E+00
  5.01520641E-01  1.88833359E-33  0.00000000E+00  0.00000000E+00  1.00000000E+00
  1.15751255E-02  9.18643510E-02 -2.22527368E-02 -3.78506018E-02 -1.19967378E-02
  2.91855906E-01 -1.59059434E-01 -2.70550780E-01 -3.46785050E-04  2.47539472E-01
 -1.37229067E-01 -2.33418605E-01  1.97384589E-01  9.89763308E-02 -4.02247153E-02
 -6.84198845E-02  2.15446100E-01 -1.39016955E-01  1.77813306E-02  3.02450017E-02
 -6.52017786E-02  1.17160686E-01  0.00000000E+00  4.71598662E-17  6.90130537E-33
  1.88833359E-33  5.01520641E-01  0.00000000E+00  0.00000000E+00  0.00000000E+00
  1.00000000E+00  1.24731127E-02  9.99974792E-02 -8.09031523E-03 -1.37611523E-02
 -1.23722999E-02  4.13797699E-01 -9.42590489E-02 -1.60329121E-01 -1.44147810E-01
  6.48907860E-01 -2.16141570E-01 -3.67644150E-01 -3.30539448E-01  7.19456196E-01
 -2.27305166E-01 -3.86632772E-01 -3.47611633E-01  2.85634525E-03  1.92968944E-02
  3.28228870E-02 -1.19445370E-02  2.14630670E-02  7.23158236E-02  4.09528899E-01
 -3.63253615E-17  2.53033469E-16  0.00000000E+00  7.86651414E-01  0.00000000E+00
  0.00000000E+00  0.00000000E+00  1.00000000E+00  8.39922334E-03  6.52674093E-02
  1.86780385E-02 -8.99834142E-03 -8.09017853E-03  2.22107729E-01  2.27298043E-01
 -8.83680793E-02 -7.94494791E-02  2.54514543E-01  5.55562878E-01 -1.44197333E-01
 -1.29644133E-01  1.57365115E-01  6.23693027E-01 -8.45673594E-02 -7.60323490E-02
  2.32894853E-02 -4.56403260E-02  1.96090896E-02 -4.45188489E-02 -5.07636803E-02
  4.62639315E-18 -3.03671207E-17  1.68056960E-01 -1.63322700E-32  0.00000000E+00
  0.00000000E+00  6.70353497E-01  0.00000000E+00  0.00000000E+00  6.45458880E-17
  1.00000000E+00  1.42865869E-02  1.11016040E-01 -8.99834142E-03  8.66259930E-03
 -1.37609198E-02  3.77792236E-01 -8.83680793E-02  1.28941569E-01 -1.35138910E-01
  4.32914329E-01 -1.44197333E-01  3.95066675E-01 -2.20517075E-01  2.67668842E-01
 -8.45673594E-02  5.29566875E-01 -1.29326572E-01  3.96140503E-02  1.96090896E-02
 -2.38147878E-02  5.14483903E-02 -1.55726212E-02 -6.40909549E-18  1.13601054E-16
 -1.63322700E-32  1.68056960E-01  0.00000000E+00  0.00000000E+00  0.00000000E+00
  6.70353497E-01  0.00000000E+00  0.00000000E+00  0.00000000E+00  1.00000000E+00
  1.28447047E-02  9.98116810E-02 -8.09017853E-03 -1.37609198E-02  1.15961601E-02
  3.39663333E-01 -7.94494791E-02 -1.35138910E-01  1.57750560E-01  3.89222196E-01
 -1.29644133E-01 -2.20517075E-01  4.42076632E-01  2.40654207E-01 -7.60323490E-02
 -1.29326572E-01  5.57136788E-01 -6.34031148E-02 -1.97528982E-02 -3.35985227E-02
 -1.09127691E-02  1.96090896E-02 -1.67873475E-19  0.00000000E+00  0.00000000E+00
  0.00000000E+00  1.68056960E-01  0.00000000E+00  0.00000000E+00  0.00000000E+00
  6.70353497E-01  0.00000000E+00  0.00000000E+00  0.00000000E+00  1.00000000E+00
  1.73780879E-04  2.53960121E-03 -3.79812902E-03 -6.46039498E-03  4.82569980E-03
  1.06717384E-02 -4.42178295E-02 -7.52119377E-02  9.03995266E-02  3.68397379E-03
 -2.61942386E-02 -4.45548655E-02  6.83970850E-02  4.59799112E-04 -5.22300597E-03
 -8.88402721E-03  1.50364098E-02 -1.55362003E-01 -2.55555849E-02 -4.34685528E-02
 -6.06208277E-02  1.08929203E-01  0.00000000E+00  0.00000000E+00 -8.29276733E-17
  8.14400261E-17  0.00000000E+00  0.00000000E+00  8.06516212E-17  0.00000000E+00
  8.06516212E-17  0.00000000E+00  0.00000000E+00 -1.21548149E-16  0.00000000E+00
  1.00000000E+00  1.17402869E-03  1.71570353E-02 -3.86058665E-03 -1.70097086E-02
 -1.12782843E-02  7.20961195E-02  2.52000405E-02 -1.12318652E-01 -4.13248883E-02
  2.48881865E-02  4.53595372E-02 -2.93533432E-02  1.45545354E-02  3.10631038E-03
  1.19109713E-02 -2.35041596E-03  6.57903887E-03 -2.55555849E-02 -2.00176057E-03
  1.00054947E-01 -1.36566828E-01 -3.99111225E-03 -5.46853746E-34  0.00000000E+00
  0.00000000E+00  0.00000000E+00  1.43634944E-16 -1.59681112E-32  6.98463528E-17
  0.00000000E+00 -1.39692706E-16  0.00000000E+00  0.00000000E+00  0.00000000E+00
  0.00000000E+00  0.00000000E+00  1.00000000E+00  1.99695403E-03  2.91831121E-02
 -1.70097086E-02 -2.27929315E-02 -1.91837010E-02  1.22631276E-01 -1.12318652E-01
 -9.98141793E-02 -7.02912143E-02  4.23333473E-02 -2.93533432E-02  1.26883358E-02
  2.47564121E-02  5.28365200E-03 -2.35041596E-03  9.29488381E-03  1.11905597E-02
 -4.34685528E-02  1.00054947E-01  1.09362567E-01  1.02538652E-02  1.28192067E-01
  1.21217034E-32  0.00000000E+00  0.00000000E+00  0.00000000E+00 -1.41058263E-16
  0.00000000E+00  0.00000000E+00  6.98463528E-17  0.00000000E+00  0.00000000E+00
  0.00000000E+00  0.00000000E+00  2.10527569E-16  0.00000000E+00 -1.57772181E-31
  1.00000000E+00 -7.26709118E-04 -1.06199909E-02  1.02046919E-02  3.70001188E-03
  9.46617243E-03 -4.46265989E-02  1.00531682E-01 -3.19508125E-02  6.25071099E-02
 -1.54054770E-02  5.16273147E-02 -5.14763313E-02  1.63356007E-02 -1.92276739E-03
  9.54757474E-03 -1.33301090E-02  1.30804374E-03 -6.06208277E-02 -1.36566828E-01
  1.02538652E-02 -9.28991287E-02 -7.25960380E-02  0.00000000E+00  0.00000000E+00
  1.43634944E-16  1.41058263E-16  0.00000000E+00  0.00000000E+00 -1.39692706E-16
  0.00000000E+00  0.00000000E+00  0.00000000E+00  0.00000000E+00 -2.10527569E-16
  0.00000000E+00  0.00000000E+00  0.00000000E+00  0.00000000E+00  1.00000000E+00
  1.30581927E-03  1.90829981E-02 -4.29395675E-03 -1.49044238E-02 -1.70097086E-02
  8.01892685E-02  2.80288707E-02 -6.52690429E-02 -1.12318652E-01  2.76820095E-02
  5.04513715E-02  8.29697283E-03 -2.93533432E-02  3.45500921E-03  1.32480372E-02
  6.07797584E-03 -2.35041596E-03  1.08929203E-01 -3.99111225E-03  1.28192067E-01
 -7.25960380E-02 -2.85258817E-03 -4.40898115E-33  0.00000000E+00 -1.41058263E-16
  1.43634944E-16  0.00000000E+00  0.00000000E+00  0.00000000E+00 -1.39692706E-16
  0.00000000E+00  0.00000000E+00  2.10527569E-16  0.00000000E+00  0.00000000E+00
  1.82179622E-31  0.00000000E+00  0.00000000E+00  0.00000000E+00  1.00000000E+00
  1.16084367E-17  2.03958276E-06 -4.78035284E-06  4.61289621E-06  1.39417443E-06
  1.56747618E-02 -2.54076207E-02  2.45175871E-02  7.41005032E-03  3.69253206E-02
 -4.93055622E-02  4.75783794E-02  1.43798076E-02  3.05519609E-02 -2.42053490E-02
  2.33574312E-02  7.05941169E-03 -1.15665463E-02 -6.63558978E-03  6.40314385E-03
  7.83052100E-04 -2.19551343E-02  1.99994544E-28  2.83034496E-09 -2.57556922E-09
  1.22456534E-08  7.41782056E-09  6.40792625E-04 -5.26315343E-04  2.50238870E-03
  1.51582522E-03  1.21886295E-02 -5.72986864E-03  2.72429043E-02  1.65024249E-02
 -2.49793085E-07 -3.55206224E-07  1.68884311E-06 -1.33234075E-06 -5.86389532E-07
  1.00000000E+00  7.56190058E-05  3.32181153E-03 -3.71942543E-03  3.58913328E-03
  1.08475839E-03  1.22644414E-01 -1.63594590E-01  1.57863841E-01  4.77118325E-02
  2.19294531E-01 -2.64563712E-01  2.55295997E-01  7.71591502E-02  1.85216521E-01
 -1.41496060E-01  1.36539427E-01  4.12668679E-02 -8.66991570E-02 -4.97382734E-02
  4.79959326E-02  5.86950983E-03 -1.64568714E-01  2.83034496E-09  2.63371125E-05
 -1.39409574E-05  6.62828752E-05  4.01509382E-05  8.58477976E-03 -5.71603632E-03
  2.71771380E-02  1.64625868E-02  7.84106312E-02 -3.42305618E-02  1.62750663E-01
  9.85864264E-02 -1.10849435E-04 -1.57628100E-04  7.49449509E-04 -5.91246231E-04