Jobname.Temp
SP        R                             6-31+G(d)           
Number of atoms                            I                6
Charge                                     I               -1
Multiplicity                               I                1
Number of electrons                        I               44
Number of alpha electrons                  I               22
Number of beta electrons                   I               22
Atomic numbers                             I   N=           6
           6           1           1          17           1          17
Current cartesian coordinates              R   N=          18
  1.10411022E+00 -7.09662831E-03 -9.72744662E-03  4.60271474E-01 -1.57420115E+00
 -1.16921338E+00  4.42284521E-01 -2.28267300E-01  1.92095810E+00  4.55707962E+00
  2.49420904E-03  3.51679546E-03  4.47972633E-01  1.77468071E+00 -7.90115869E-01
 -4.97526303E+00  2.66200555E-03  4.64297432E-03
Nuclear charges                            R   N=           6
  6.00000000E+00  1.00000000E+00  1.00000000E+00  1.70000000E+01  1.00000000E+00
  1.70000000E+01
Number of basis functions                  I               71
Number of contracted shells                I               23
Number of primitive shells                 I               60
Highest angular momentum                   I                2
Largest degree of contraction              I                6
Shell types                                I   N=          23
           0          -1          -1          -1           2           0
           0           0           0           0          -1          -1
          -1          -1           2           0           0           0
          -1          -1          -1          -1           2
Number of primitives per shell             I   N=          23
           6           3           1           1           1           3
           1           3           1           6           6           3
           1           1           1           3           1           6
           6           3           1           1           1
Shell to atom map                          I   N=          23
           1           1           1           1           1           2
           2           3           3           4           4           4
           4           4           4           5           5           6
           6           6           6           6           6
Primitive exponents                        R   N=          60
  3.04752490E+03  4.57369510E+02  1.03948690E+02  2.92101550E+01  9.28666300E+00
  3.16392700E+00  7.86827240E+00  1.88128850E+00  5.44249300E-01  1.68714400E-01
  4.38000000E-02  8.00000000E-01  1.87311370E+01  2.82539370E+00  6.40121700E-01
  1.61277800E-01  1.87311370E+01  2.82539370E+00  6.40121700E-01  1.61277800E-01
  2.51801000E+04  3.78035000E+03  8.60474000E+02  2.42145000E+02  7.73349000E+01
  2.62470000E+01  4.91765000E+02  1.16984000E+02  3.74153000E+01  1.37834000E+01
  5.45215000E+00  2.22588000E+00  3.18649000E+00  1.14427000E+00  4.20377000E-01
  1.42657000E-01  4.83000000E-02  7.50000000E-01  1.87311370E+01  2.82539370E+00
  6.40121700E-01  1.61277800E-01  2.51801000E+04  3.78035000E+03  8.60474000E+02
  2.42145000E+02  7.73349000E+01  2.62470000E+01  4.91765000E+02  1.16984000E+02
  3.74153000E+01  1.37834000E+01  5.45215000E+00  2.22588000E+00  3.18649000E+00
  1.14427000E+00  4.20377000E-01  1.42657000E-01  4.83000000E-02  7.50000000E-01
Contraction coefficients                   R   N=          60
  1.83470016E-03  1.40373012E-02  6.88426061E-02  2.32184421E-01  4.67941342E-01
  3.62312032E-01 -1.19332409E-01 -1.60854212E-01  1.14345648E+00  1.00000000E+00
  1.00000000E+00  1.00000000E+00  3.34945995E-02  2.34726947E-01  8.13757318E-01
  1.00000000E+00  3.34945995E-02  2.34726947E-01  8.13757318E-01  1.00000000E+00
  1.83300031E-03  1.40340024E-02  6.90970118E-02  2.37452040E-01  4.83034082E-01
  3.39856058E-01 -2.29740199E-03 -3.07140266E-02 -1.12528097E-01  4.50160390E-02
  5.89353510E-01  4.65206403E-01 -2.51831288E-01  6.15893150E-02  1.06018542E+00
  1.00000000E+00  1.00000000E+00  1.00000000E+00  3.34945995E-02  2.34726947E-01
  8.13757318E-01  1.00000000E+00  1.83300031E-03  1.40340024E-02  6.90970118E-02
  2.37452040E-01  4.83034082E-01  3.39856058E-01 -2.29740199E-03 -3.07140266E-02
 -1.12528097E-01  4.50160390E-02  5.89353510E-01  4.65206403E-01 -2.51831288E-01
  6.15893150E-02  1.06018542E+00  1.00000000E+00  1.00000000E+00  1.00000000E+00
P(S=P) Contraction coefficients            R   N=          60
  0.00000000E+00  0.00000000E+00  0.00000000E+00  0.00000000E+00  0.00000000E+00
  0.00000000E+00  6.89990956E-02  3.16423980E-01  7.44308252E-01  1.00000000E+00
  1.00000000E+00  0.00000000E+00  0.00000000E+00  0.00000000E+00  0.00000000E+00
  0.00000000E+00  0.00000000E+00  0.00000000E+00  0.00000000E+00  0.00000000E+00
  0.00000000E+00  0.00000000E+00  0.00000000E+00  0.00000000E+00  0.00000000E+00
  0.00000000E+00  3.98940055E-03  3.03180042E-02  1.29880018E-01  3.27951045E-01
  4.53527062E-01  2.52154035E-01 -1.42990127E-02  3.23572288E-01  7.43507661E-01
  1.00000000E+00  1.00000000E+00  0.00000000E+00  0.00000000E+00  0.00000000E+00
  0.00000000E+00  0.00000000E+00  0.00000000E+00  0.00000000E+00  0.00000000E+00
  0.00000000E+00  0.00000000E+00  0.00000000E+00  3.98940055E-03  3.03180042E-02
  1.29880018E-01  3.27951045E-01  4.53527062E-01  2.52154035E-01 -1.42990127E-02
  3.23572288E-01  7.43507661E-01  1.00000000E+00  1.00000000E+00  0.00000000E+00
Coordinates of each shell                  R   N=          69
  1.10411022E+00 -7.09662831E-03 -9.72744662E-03  1.10411022E+00 -7.09662831E-03
 -9.72744662E-03  1.10411022E+00 -7.09662831E-03 -9.72744662E-03  1.10411022E+00
 -7.09662831E-03 -9.72744662E-03  1.10411022E+00 -7.09662831E-03 -9.72744662E-03
  4.60271474E-01 -1.57420115E+00 -1.16921338E+00  4.60271474E-01 -1.57420115E+00
 -1.16921338E+00  4.42284521E-01 -2.28267300E-01  1.92095810E+00  4.42284521E-01
 -2.28267300E-01  1.92095810E+00  4.55707962E+00  2.49420904E-03  3.51679546E-03
  4.55707962E+00  2.49420904E-03  3.51679546E-03  4.55707962E+00  2.49420904E-03
  3.51679546E-03  4.55707962E+00  2.49420904E-03  3.51679546E-03  4.55707962E+00
  2.49420904E-03  3.51679546E-03  4.55707962E+00  2.49420904E-03  3.51679546E-03
  4.47972633E-01  1.77468071E+00 -7.90115869E-01  4.47972633E-01  1.77468071E+00
 -7.90115869E-01 -4.97526303E+00  2.66200555E-03  4.64297432E-03 -4.97526303E+00
  2.66200555E-03  4.64297432E-03 -4.97526303E+00  2.66200555E-03  4.64297432E-03
 -4.97526303E+00  2.66200555E-03  4.64297432E-03 -4.97526303E+00  2.66200555E-03
  4.64297432E-03 -4.97526303E+00  2.66200555E-03  4.64297432E-03
Overlap Matrix                             R   N=        2556
  1.00000000E+00  2.19058872E-01  1.00000000E+00 -5.12051500E-17  0.00000000E+00
  1.00000000E+00  1.92847759E-19  1.16261645E-18  0.00000000E+00  1.00000000E+00
 -1.04020828E-19  1.97664604E-18  0.00000000E+00  2.52361078E-36  1.00000000E+00
  1.84261053E-01  8.12273068E-01  0.00000000E+00  0.00000000E+00  0.00000000E+00
  1.00000000E+00 -1.16284889E-17  0.00000000E+00  5.69754058E-01  0.00000000E+00
  0.00000000E+00  0.00000000E+00  1.00000000E+00  7.60738919E-20  0.00000000E+00
  0.00000000E+00  5.69754058E-01  0.00000000E+00  0.00000000E+00  0.00000000E+00
  1.00000000E+00  9.30859402E-20  0.00000000E+00  0.00000000E+00  0.00000000E+00
  5.69754058E-01  0.00000000E+00  0.00000000E+00  0.00000000E+00  1.00000000E+00
  6.97718343E-02  4.02090587E-01  6.14004021E-17 -3.43267481E-19  0.00000000E+00
  7.27666104E-01  0.00000000E+00  0.00000000E+00  1.03697545E-18  1.00000000E+00
 -4.60477910E-19  4.28742132E-17  1.64678564E-01 -3.36874149E-35  0.00000000E+00
  0.00000000E+00  5.88690339E-01  0.00000000E+00  0.00000000E+00  0.00000000E+00
  1.00000000E+00 -2.35315336E-20 -1.60443191E-19 -3.36874149E-35  1.64678564E-01
  0.00000000E+00  0.00000000E+00  0.00000000E+00  5.88690339E-01  0.00000000E+00
  0.00000000E+00  0.00000000E+00  1.00000000E+00 -4.65917154E-20  0.00000000E+00
  0.00000000E+00  0.00000000E+00  1.64678564E-01  5.28359417E-19  0.00000000E+00
  0.00000000E+00  5.88690339E-01  0.00000000E+00  0.00000000E+00  0.00000000E+00
  1.00000000E+00  7.91027073E-02  7.10235064E-01  6.63384294E-16 -2.11296974E-19
  3.15168893E-20  6.29936196E-01  0.00000000E+00  0.00000000E+00  8.97703444E-19
  3.23540475E-01  0.00000000E+00 -1.17461605E-19  0.00000000E+00  1.00000000E+00
  7.91027073E-02  7.10235064E-01  2.21128098E-16 -6.33890922E-19  3.15168893E-20
  6.29936196E-01  0.00000000E+00  0.00000000E+00  8.97703444E-19  3.23540475E-01
  0.00000000E+00 -3.52384815E-19  0.00000000E+00  3.33333333E-01  1.00000000E+00
  7.91027073E-02  7.10235064E-01  2.21128098E-16 -2.11296974E-19  9.45506678E-20
  6.29936196E-01  0.00000000E+00  0.00000000E+00  2.69311033E-18  3.23540475E-01
  0.00000000E+00 -1.17461605E-19  0.00000000E+00  3.33333333E-01  3.33333333E-01
  1.00000000E+00 -3.50642568E-34  8.67783956E-35 -3.65977094E-19  3.83005101E-16
  0.00000000E+00  0.00000000E+00  0.00000000E+00  0.00000000E+00  0.00000000E+00
  0.00000000E+00 -2.03449468E-19  0.00000000E+00  0.00000000E+00  0.00000000E+00
  0.00000000E+00  0.00000000E+00  1.00000000E+00 -3.15431440E-34  0.00000000E+00
  5.45888535E-20  0.00000000E+00  3.83005101E-16  0.00000000E+00  1.55486797E-18
  0.00000000E+00  0.00000000E+00  0.00000000E+00  0.00000000E+00  0.00000000E+00
  0.00000000E+00  0.00000000E+00  0.00000000E+00  0.00000000E+00  0.00000000E+00
  1.00000000E+00  2.48675932E-36 -2.53053355E-37  0.00000000E+00  5.45888535E-20
 -3.65977094E-19  0.00000000E+00  0.00000000E+00  1.55486797E-18  0.00000000E+00
  0.00000000E+00  0.00000000E+00  0.00000000E+00 -2.03449468E-19  0.00000000E+00
  0.00000000E+00  0.00000000E+00  0.00000000E+00  0.00000000E+00  1.00000000E+00
  3.32625397E-02  2.75964765E-01 -1.16549753E-01 -2.83682280E-01 -2.09893857E-01
  3.78481815E-01 -1.61596036E-01 -3.93325004E-01 -2.91017479E-01  2.59181342E-01
 -6.57001220E-02 -1.59914200E-01 -1.18319016E-01  1.52260261E-01  3.16949730E-01
  2.27282162E-01  1.40992885E-01  1.04319312E-01  2.53913369E-01  1.00000000E+00
  9.26056910E-02  4.77771761E-01 -8.33647835E-02 -2.02910013E-01 -1.50131215E-01
  7.06160119E-01 -1.82539680E-01 -4.44301868E-01 -3.28734782E-01  6.41805372E-01
 -1.36020213E-01 -3.31073412E-01 -2.44958110E-01  3.60523867E-01  3.99476231E-01
  3.78268052E-01  3.33476467E-02  2.46736109E-02  6.00556074E-02  6.58292049E-01
  1.00000000E+00  3.32677309E-02  2.75987295E-01 -1.19817014E-01 -4.00407681E-02
  3.49531572E-01  3.78496048E-01 -1.66116820E-01 -5.55133601E-02  4.84597897E-01
  2.59184290E-01 -6.75363579E-02 -2.25694795E-02  1.97017840E-01  1.54170879E-01
  1.22775347E-01  4.19597518E-01  2.04570024E-02 -1.78577198E-01 -5.96774025E-02
  1.81555152E-02  1.48252943E-01  1.00000000E+00  9.26096740E-02  4.77787863E-01
 -8.56967610E-02 -2.86383712E-02  2.49995576E-01  7.06176198E-01 -1.87643572E-01
 -6.27072274E-02  5.47395986E-01  6.41811477E-01 -1.39821546E-01 -4.67259357E-02
  4.07889022E-01  3.60985390E-01  3.53560274E-01  4.23759403E-01  4.83812826E-03
 -4.22339195E-02 -1.41138434E-02  1.48252943E-01  4.00060195E-01  6.58292049E-01
  1.00000000E+00  1.52159496E-16  1.74348068E-04  5.69911481E-04  1.58296460E-06
  2.18595787E-06  5.20727972E-03  1.47057454E-02  4.08461227E-05  5.64054960E-05
  8.36994906E-03  1.20832189E-02  3.35618923E-05  4.63465087E-05  2.24569473E-04
  2.64001267E-07  2.65570755E-07  1.07911479E-06  1.49017827E-06  4.13906288E-09
  1.90817159E-07  1.35493222E-03  1.88874258E-07  1.35139667E-03  1.00000000E+00
  2.83138844E-08  2.84861100E-03  7.87328679E-03  2.18685440E-05  3.01988533E-05
  4.27521401E-02  1.14589944E-01  3.18280698E-04  4.39522271E-04  6.62280859E-02
  9.42920263E-02  2.61901970E-04  3.61667388E-04  5.54957793E-03  1.17211205E-04
  1.17249216E-04  2.61346600E-05  3.60900463E-05  1.00242349E-07  1.17218473E-05
  1.18529483E-02  1.16253699E-05  1.18235399E-02  2.67196851E-01  1.00000000E+00
 -9.29281734E-08 -3.33897946E-03 -8.47336833E-03 -2.59070390E-05 -3.57757184E-05
 -1.81460071E-02 -3.60336471E-02 -1.35622313E-04 -1.87284455E-04 -7.60729938E-03
 -3.14208570E-04 -3.01118688E-05 -4.15822796E-05 -7.56045454E-03 -1.75385448E-04
 -1.75445234E-04 -3.83174339E-05 -5.29135625E-05 -1.57666094E-07 -1.77972435E-05
 -5.69330081E-03 -1.77275511E-05 -5.70405911E-03 -8.45072294E-16 -1.39753144E-16
  1.00000000E+00 -2.58113784E-10 -9.27422321E-06 -2.59070390E-05  8.53817546E-04
 -9.93692838E-08 -5.04016638E-05 -1.35622313E-04  1.27937978E-02 -5.20194226E-07
 -2.11297474E-05 -3.01118688E-05  1.05268218E-02 -1.15497369E-07 -2.42194505E-05
  2.73267358E-06 -4.87310053E-07  1.00380350E-03 -1.57666094E-07  3.85019821E-06
 -6.84943747E-06 -2.19112066E-03 -9.94177438E-07 -3.19888902E-04  5.46548794E-19
 -2.36758506E-19  3.16474593E-33  1.00000000E+00 -3.56436181E-10 -1.28070212E-05
 -3.57757184E-05 -9.93692838E-08  8.53752283E-04 -6.96009965E-05 -1.87284455E-04
 -5.20194226E-07  1.27934562E-02 -2.91786294E-05 -4.15822796E-05 -1.15497369E-07
  1.05267460E-02 -3.34452826E-05 -6.72710084E-07  3.77339223E-06 -1.57666094E-07
  1.00369995E-03  2.78783907E-06 -5.09454279E-06 -1.62973354E-03  8.26080959E-06
  2.65801778E-03  8.89333213E-19 -4.19170531E-19  3.15309714E-33  7.31154658E-37
  1.00000000E+00  3.66847044E-03  6.86684275E-02  1.08930824E-01  3.02562141E-04
  4.17816098E-04  2.11999814E-01  4.24534847E-01  1.17917195E-03  1.62834987E-03
  2.87227494E-01  3.74721094E-01  1.04081115E-03  1.43728377E-03  1.24391377E-01
  2.79027295E-02  2.79034047E-02  4.64198779E-04  6.41024426E-04  1.78048523E-06
  4.51172435E-03  7.97672245E-02  4.49298910E-03  7.96171650E-02  1.11792091E-02
  3.35814146E-01 -8.81767050E-17 -2.01119178E-19 -6.54541431E-19  1.00000000E+00
 -1.05138103E-02 -1.29228429E-01 -1.84126299E-01 -6.13265744E-04 -8.46874957E-04
 -2.23842383E-01 -3.08074239E-01 -1.29406182E-03 -1.78700435E-03 -9.96824039E-02
  6.45667524E-03 -3.65201789E-04 -5.04316852E-04 -2.18284602E-01 -5.89255344E-02
 -5.89271037E-02 -9.22819961E-04 -1.27434660E-03 -4.13852451E-06 -1.03637851E-02
 -9.36171329E-02 -1.03655564E-02 -9.38460006E-02 -2.21470192E-17  2.53607085E-16
  3.25434154E-01  2.00078196E-34  1.84916934E-34 -1.30532278E-16  1.00000000E+00
 -2.92027623E-05 -3.58940003E-04 -6.13265744E-04  3.66647993E-02 -2.35224789E-06
 -6.21736147E-04 -1.29406182E-03  1.57820576E-01 -4.96351576E-06 -2.76874079E-04
 -3.65201789E-04  1.37938508E-01 -1.40077144E-06 -7.86610707E-04  1.66423062E-05
 -1.63673697E-04  5.62169730E-02 -4.13852451E-06  2.15626353E-04 -3.98860073E-03
 -3.60294390E-02 -5.81309973E-04 -5.26297037E-03  8.30521074E-21  1.17145807E-19
  2.00078196E-34  3.25434154E-01  7.10145736E-38 -3.77086799E-19  0.00000000E+00
  1.00000000E+00 -4.03268703E-05 -4.95669785E-04 -8.46874957E-04 -2.35224789E-06
  3.66632544E-02 -8.58571962E-04 -1.78700435E-03 -4.96351576E-06  1.57817316E-01
 -3.82342771E-04 -5.04316852E-04 -1.40077144E-06  1.37937588E-01 -1.08625162E-03
 -2.26015337E-04  2.29757836E-05 -4.13852451E-06  5.62142550E-02  1.56138591E-04
 -2.96668116E-03 -2.67983348E-02  4.83021523E-03  4.37310227E-02 -2.55040858E-20
  1.51975508E-20  1.84916934E-34  7.10145736E-38  3.25434154E-01 -6.19019421E-19
  2.25443645E-35  1.65309408E-37  1.00000000E+00  3.14916535E-02  2.01940493E-01
  1.66066142E-01  4.61259043E-04  6.36964867E-04  3.95774042E-01  5.14352049E-01
  1.42864482E-03  1.97285359E-03  5.23570262E-01  5.78960781E-01  1.60809959E-03
  2.22066745E-03  2.12667230E-01  1.40392469E-01  1.40392975E-01  3.47707807E-04
  4.80158947E-04  1.33367135E-06  5.37722346E-02  2.08957682E-01  5.36689840E-02
  2.08700493E-01  3.40560234E-02  2.55649358E-01 -1.13649309E-16  1.01859509E-19
  7.73647486E-20  8.25875607E-01  0.00000000E+00 -3.33525296E-19 -1.49370956E-19
  1.00000000E+00 -7.96213365E-02 -4.11492248E-01 -2.21868772E-01 -9.69930344E-04
 -1.33940258E-03 -5.59358197E-01 -3.32561976E-01 -2.01914251E-03 -2.78828753E-03
 -3.20803913E-01  8.91822774E-02 -9.85320750E-04 -1.36065560E-03 -3.59931158E-01
 -3.10777358E-01 -3.10778477E-01 -5.03088143E-04 -6.94727781E-04 -2.95225850E-06
 -1.37805703E-01 -3.43142624E-01 -1.38144464E-01 -3.44224986E-01  1.28218154E-20
  3.24508222E-17  7.13886845E-02  7.18562701E-35  7.18562701E-35  0.00000000E+00
  6.24326097E-01  0.00000000E+00  0.00000000E+00 -6.70929296E-16  1.00000000E+00
 -2.21153216E-04 -1.14294532E-03 -9.69930344E-04  1.27330556E-01 -3.72027400E-06
 -1.55365220E-03 -2.01914251E-03  3.94380130E-01 -7.74464210E-06 -8.91052830E-04
 -9.85320750E-04  4.43922539E-01 -3.77930559E-06 -1.30758500E-03 -5.55349635E-04
 -8.63206558E-04  9.59846309E-02 -2.95225850E-06  3.68159558E-04 -5.30358279E-02
 -1.32061684E-01 -7.74726909E-03 -1.93044551E-02 -3.97289563E-21  5.02076428E-20
  7.18562701E-35  7.13886845E-02  3.50860694E-38 -2.60519846E-19  0.00000000E+00
  6.24326097E-01  0.00000000E+00  0.00000000E+00  0.00000000E+00  1.00000000E+00
 -3.05396351E-04 -1.57832356E-03 -1.33940258E-03 -3.72027400E-06  1.27328113E-01
 -2.14547959E-03 -2.78828753E-03 -7.74464210E-06  3.94375044E-01 -1.23047852E-03
 -1.36065560E-03 -3.77930559E-06  4.43920057E-01 -1.80567886E-03 -1.19202057E-03
 -7.66901358E-04 -2.95225850E-06  9.59826919E-02  2.66597899E-04 -3.94475161E-02
 -9.82261542E-02  6.43735337E-02  1.60404392E-01 -6.24641301E-21  5.16130312E-20
  7.18562701E-35  3.50860694E-38  7.13886845E-02 -1.00388162E-20  0.00000000E+00
  0.00000000E+00  6.24326097E-01 -3.27602195E-19  2.19797910E-34  0.00000000E+00
  1.00000000E+00  4.24069799E-02  2.52590143E-01  8.14858282E-02  2.26331958E-04
  3.12547813E-04  4.84947310E-01  3.06162457E-01  8.50385274E-04  1.17431962E-03
  7.59063079E-01  5.75340768E-01  1.59804478E-03  2.20678249E-03  2.12680124E-01
  1.99591367E-01  1.99591458E-01  6.29689142E-05  8.69554464E-05  2.41524163E-07
  1.29433586E-01  3.58849648E-01  1.29338544E-01  3.58632713E-01  1.51720824E-02
  1.18939117E-01  1.30169538E-16  9.09923036E-20  5.35004544E-20  4.87859821E-01
  0.00000000E+00 -1.95612597E-19 -7.43210336E-20  8.10628338E-01  0.00000000E+00
  0.00000000E+00  0.00000000E+00  1.00000000E+00 -6.36791205E-02 -3.50269137E-01
 -6.88792193E-03 -3.17381037E-04 -4.38279905E-04 -5.72208684E-01  4.21929087E-02
 -1.00340352E-03 -1.38562658E-03 -5.47884026E-01  3.42881358E-01 -1.15345250E-03
 -1.59283320E-03 -2.69917624E-01 -2.85679161E-01 -2.85679292E-01 -7.15126424E-06
 -9.87537076E-06 -3.45698421E-07 -2.17874112E-01 -4.97268588E-01 -2.18669953E-01
 -4.99149902E-01 -3.76498370E-18  2.72797668E-17  1.98368281E-02  1.97249191E-35
  5.25546881E-36  0.00000000E+00  2.45534554E-01  0.00000000E+00  0.00000000E+00
  0.00000000E+00  7.04751978E-01  0.00000000E+00  0.00000000E+00  3.90394578E-16
  1.00000000E+00 -1.76872720E-04 -9.72894322E-04 -3.17381037E-04  1.07377237E-01
 -1.21734971E-06 -1.58934522E-03 -1.00340352E-03  4.03443422E-01 -3.84866403E-06
 -1.52178197E-03 -1.15345250E-03  7.58153281E-01 -4.42419333E-06 -8.45527062E-04
 -6.97677578E-04 -7.93492010E-04  2.98739379E-02 -3.45698421E-07  1.14584759E-04
 -8.38509124E-02 -1.91378519E-01 -1.22632129E-02 -2.79927874E-02 -5.97229105E-22
  1.41270427E-20  1.97249191E-35  1.98368281E-02  8.60164730E-39 -9.00905887E-20
  0.00000000E+00  2.45534554E-01  0.00000000E+00  0.00000000E+00  0.00000000E+00
  7.04751978E-01  0.00000000E+00  1.90622353E-19  7.44179331E-35  1.00000000E+00
 -2.44248237E-04 -1.34349561E-03 -4.38279905E-04 -1.21734971E-06  1.07376437E-01
 -2.19476904E-03 -1.38562658E-03 -3.84866403E-06  4.03440895E-01 -2.10146915E-03
 -1.59283320E-03 -4.42419333E-06  7.58150375E-01 -1.16761078E-03 -1.09575369E-03
 -9.63442004E-04 -3.45698421E-07  2.98737109E-02  8.29760907E-05 -6.23674664E-02
 -1.42345420E-01  1.01897370E-01  2.32597400E-01 -1.62355401E-21 -1.55010350E-23
  5.25546881E-36  8.60164730E-39  1.98368281E-02 -2.90639813E-21  0.00000000E+00
  0.00000000E+00  2.45534554E-01  0.00000000E+00  0.00000000E+00  0.00000000E+00
  7.04751978E-01  0.00000000E+00  0.00000000E+00  0.00000000E+00  1.00000000E+00
  3.47074732E-03  1.10044198E-01  1.79592355E-01  6.39861672E-04  8.83601981E-04
  2.16190947E-01  3.71096417E-01  1.39053153E-03  1.92022193E-03  2.17391454E-01
  2.64076551E-01  8.24548512E-04  1.13864094E-03  2.29810303E-01  3.57208603E-02
  3.57230231E-02  1.19455456E-03  1.64959212E-03  5.70371746E-06  4.41726480E-03
  8.01044533E-02  4.42756987E-03  8.02758389E-02  2.54826105E-03  1.53282616E-01
  0.00000000E+00  1.85207357E-20 -2.15414282E-21  7.26013263E-01 -1.78666333E-15
 -2.87407709E-19  2.94188428E-19  6.08667132E-01  0.00000000E+00  0.00000000E+00
  1.99400689E-19  3.57204234E-01  0.00000000E+00  0.00000000E+00  0.00000000E+00
  1.00000000E+00  4.47607235E-05  1.73921943E-02  3.39772124E-02 -4.66589112E-05
  1.30323317E-04  1.24332625E-01  2.87915232E-01  4.39914329E-04  1.10433039E-03
  2.05545836E-01  2.80684630E-01  6.88559563E-04  1.07659662E-03  3.17943939E-02
  9.87916995E-03  3.29388213E-03 -1.55374247E-04  1.89345094E-04 -5.95954931E-07
  9.98637396E-04  4.67143948E-02  4.14636155E-04  4.09447116E-02  2.54826105E-03
  1.53282616E-01  0.00000000E+00  5.55622072E-20 -2.15414282E-21  7.26013263E-01
 -5.95554444E-16 -8.62223128E-19  2.94188428E-19  6.08667132E-01  0.00000000E+00
  0.00000000E+00  1.99400689E-19  3.57204234E-01  0.00000000E+00  0.00000000E+00
  0.00000000E+00  3.33333333E-01  1.00000000E+00  4.47846955E-05  1.73928426E-02
  3.39785865E-02  9.43776383E-05 -6.44272593E-05  1.24333267E-01  2.87916721E-01
  7.99706606E-04  6.07495092E-04  2.05545919E-01  2.80684743E-01  7.79619339E-04
  9.50850626E-04  3.17965842E-02  3.29390960E-03  9.87874548E-03  1.37123973E-04
 -2.14547382E-04 -5.95918702E-07  7.33075129E-04  4.41206230E-02  1.27610886E-03
  4.93880837E-02  2.54826105E-03  1.53282616E-01  0.00000000E+00  1.85207357E-20
 -6.46242845E-21  7.26013263E-01 -5.95554444E-16 -2.87407709E-19  8.82565283E-19
  6.08667132E-01  0.00000000E+00  0.00000000E+00  5.98202066E-19  3.57204234E-01
  0.00000000E+00  0.00000000E+00  0.00000000E+00  3.33333333E-01  3.33333333E-01
  1.00000000E+00  1.64821337E-05  4.45741009E-04  8.22682032E-04 -4.39704426E-02
  3.62396038E-06  4.41922673E-04  7.11768171E-04 -1.12176705E-01  3.92518568E-06
  5.69882727E-05 -1.03905135E-06 -2.83915176E-02  2.98490026E-07  1.21344446E-03
 -1.36484347E-04  1.56013873E-04 -8.13106233E-02  7.99671104E-06 -3.49767530E-04
  2.67506604E-03  2.61276240E-02  3.91026156E-04  3.83248282E-03  0.00000000E+00
  0.00000000E+00  3.20788553E-20  0.00000000E+00  0.00000000E+00  1.15147642E-33
 -4.97804755E-19 -1.03153056E-15  4.54128126E-52  0.00000000E+00  0.00000000E+00
  0.00000000E+00  0.00000000E+00  0.00000000E+00  0.00000000E+00  0.00000000E+00
  0.00000000E+00  2.00148511E-33  2.00148511E-33  6.67161703E-34  1.00000000E+00
  2.27606163E-05  6.15535600E-04  1.13606347E-03  3.62396038E-06 -4.39680624E-02
  6.10262759E-04  9.82899575E-04  3.92518568E-06 -1.12174127E-01  7.86966197E-05
 -1.43485362E-06  2.98490026E-07 -2.83913215E-02  1.67567768E-03  2.15430659E-04
 -1.88461817E-04  7.99671104E-06 -8.13053713E-02 -2.53268310E-04  1.98968725E-03
  1.94334643E-02 -3.24911077E-03 -3.18448294E-02  0.00000000E+00  0.00000000E+00
 -3.73108481E-21  0.00000000E+00  0.00000000E+00 -1.15147642E-33  5.09549304E-19
  4.54128126E-52 -1.03153056E-15  0.00000000E+00  3.45372124E-19  0.00000000E+00
  0.00000000E+00  0.00000000E+00  0.00000000E+00  0.00000000E+00  0.00000000E+00
  0.00000000E+00  0.00000000E+00  0.00000000E+00  0.00000000E+00  1.00000000E+00
  6.32190281E-08  1.70968843E-06  3.62396038E-06 -1.68653445E-04 -1.22124029E-04
  1.69504279E-06  3.92518568E-06 -4.30266029E-04 -3.11570616E-04  2.18584758E-07
  2.98490026E-07 -1.08898773E-04 -7.88586621E-05  5.77617174E-06 -5.23500652E-07
 -5.23464423E-07 -3.49767530E-04 -2.53268310E-04  9.87759286E-03  7.65749955E-04
  7.47915254E-03 -1.82213132E-04 -1.78588744E-03  0.00000000E+00  0.00000000E+00
  0.00000000E+00 -3.73108481E-21  3.20788553E-20 -6.61152727E-37  4.54128126E-52
  5.09549304E-19 -4.97804755E-19  0.00000000E+00  0.00000000E+00  3.45372124E-19
  0.00000000E+00  0.00000000E+00  0.00000000E+00  0.00000000E+00  0.00000000E+00
  0.00000000E+00  0.00000000E+00  0.00000000E+00  0.00000000E+00  1.15555797E-33
  1.00000000E+00  3.32719297E-02  2.76005516E-01 -1.18796223E-01  3.22597608E-01
 -1.41292311E-01  3.78507560E-01 -1.64694142E-01  4.47235905E-01 -1.95881783E-01
  2.59186675E-01 -6.69565276E-02  1.81824095E-01 -7.96358868E-02  1.53578766E-01
  3.75024623E-01  1.67982078E-01 -1.63402453E-01  7.15675184E-02 -1.94345491E-01
  1.81682936E-02  1.48294591E-01  1.81511458E-02  1.48238697E-01  1.89601909E-07
  1.16615245E-05 -1.77583670E-05  7.65887534E-06 -3.42984987E-06  4.50001909E-03
 -1.03676134E-02  4.47137166E-03 -2.00240020E-03  5.37077537E-02 -1.38053344E-01
  5.95400101E-02 -2.66636141E-02  1.29374244E-01 -2.18427965E-01  9.42041890E-02
 -4.21871634E-02  4.42580472E-03  1.15111834E-03  5.52894530E-04 -3.00517955E-03
  1.34580004E-03 -5.80420190E-04  1.00000000E+00  9.26128952E-02  4.77800884E-01
 -8.49626482E-02  2.30720695E-01 -1.01051773E-01  7.06189201E-01 -1.86034281E-01
  5.05186214E-01 -2.21263041E-01  6.41816414E-01 -1.38620905E-01  3.76432613E-01
 -1.64871135E-01  3.60853146E-01  4.13222422E-01  3.64259356E-01 -3.86427103E-02
  1.69248554E-02 -4.59603659E-02  1.48294591E-01  4.00129410E-01  1.48238697E-01
  4.00036519E-01  1.35272396E-03  1.18345806E-02 -5.70151199E-03  2.45896313E-03
 -1.10118967E-03  7.96735120E-02 -9.37845753E-02  4.04476590E-02 -1.81135469E-02
  2.08797086E-01 -3.43908242E-01  1.48321654E-01 -6.64224161E-02  3.58714204E-01
 -4.98573162E-01  2.15025949E-01 -9.62943891E-02  8.02319034E-02  4.81782772E-02
  4.23226806E-02 -2.94156114E-02  1.31731001E-02 -5.68132934E-03  6.58292049E-01
  1.00000000E+00  2.86674999E-47  2.57404306E-10 -1.48037833E-09  2.37630911E-12
  3.49931791E-12  7.76812879E-05 -3.86232811E-04  6.19982427E-07  9.12977019E-07
  2.79922026E-03 -7.11480191E-03  1.14207080E-05  1.68179669E-05  2.17215731E-12
  9.03898929E-16  9.10436307E-16 -6.03674006E-15 -8.88961478E-15  1.42696446E-17
  6.22993904E-11  1.74445874E-04  7.68591268E-11  1.84060086E-04  0.00000000E+00
  6.63769186E-83 -9.43336738E-82  1.66054258E-86  1.11448563E-85  3.20329240E-18
 -2.74350916E-17  4.82936113E-22  3.24126202E-21  8.38958841E-08 -6.01828677E-07
  1.05939068E-11  7.11018015E-11  1.89421787E-04 -7.92649462E-04  1.39528986E-08
  9.36459276E-08  1.96146622E-28  3.68706077E-32  3.68732842E-32 -5.97920007E-33
 -4.01298507E-32  7.06400197E-37  7.18243029E-11  1.80902114E-04  1.00000000E+00
  1.75272735E-22  3.93838416E-08 -1.86841166E-07  2.99918175E-10  4.41655100E-10
  7.92517004E-04 -3.73389011E-03  5.99365509E-06  8.82616849E-06  2.24863956E-02
 -5.63643684E-02  9.04763059E-05  1.33234080E-04  5.24806626E-09  4.24479896E-11
  4.24636631E-11 -1.44731905E-11 -2.13130079E-11  3.42117241E-14  1.87324102E-08
  1.68925586E-03  2.21507239E-08  1.77759104E-03  6.63769186E-83  2.60613217E-45
 -2.00894105E-44  3.53631108E-49  2.37342176E-48  3.52116922E-15 -2.57445632E-14
  4.53177976E-19  3.04153805E-18  1.12039111E-06 -7.66538844E-06  1.34932770E-10
  9.05611427E-10  1.58742905E-03 -6.54106605E-03  1.15141479E-07  7.72780689E-07
  2.42262623E-21  7.97983055E-24  7.97986350E-24 -7.36202754E-26 -4.94108012E-25
  8.69771482E-30  2.09847382E-08  1.74860147E-03  2.67196851E-01  1.00000000E+00
  1.01164356E-21  7.68838756E-08 -3.54252590E-07  5.86559521E-10  8.63758939E-10
  5.83754503E-04 -2.52570306E-03  4.42952270E-06  6.52285009E-06  4.54289900E-03
 -7.82730165E-03  1.82959040E-05  2.69422796E-05  1.30529933E-08  1.10415228E-10
  1.10456067E-10 -3.68480943E-11 -5.42619627E-11  8.91434015E-14  3.70546305E-08
  1.06938645E-03  4.36821342E-08  1.12177179E-03  9.43336738E-82  2.00894105E-44
 -1.54093873E-43  2.72597092E-48  1.82955587E-47  8.63553518E-15 -6.21709099E-14
  1.11163463E-18  7.46081940E-18  1.08790902E-06 -7.15752011E-06  1.31311830E-10
  8.81309217E-10  5.52189668E-04 -2.01401576E-03  4.00922302E-08  2.69082017E-07
  9.22914959E-21  3.10057178E-23  3.10058458E-23 -2.83248500E-25 -1.90104359E-24
  3.37952957E-29  4.14228949E-08  1.10457625E-03  2.95167360E-16  1.89178145E-15
  1.00000000E+00 -1.62389423E-24 -1.23414300E-10  5.86559521E-10  1.11576842E-08
 -1.38650925E-12 -9.37045024E-07  4.42952270E-06  2.33766433E-04 -1.04705046E-08
 -7.29227934E-06  1.82959040E-05  3.57053788E-03 -4.32478532E-08 -2.19501638E-11
  8.20208654E-13 -1.77304514E-13 -5.38073563E-10  8.91434015E-14  1.27189815E-12
 -1.07496478E-08 -3.10231882E-04 -1.86200210E-09 -4.78168356E-05 -1.66054258E-86
 -3.53631108E-49  2.72597092E-48  7.65661634E-46 -3.22054184E-52 -1.52010128E-19
  1.11163463E-18  9.79881932E-16 -1.31331769E-22 -1.91503116E-11  1.31311830E-10
  3.02166550E-07 -1.55135639E-14 -9.72011816E-09  4.00922302E-08  2.63581585E-04
 -4.73661343E-12 -1.65699333E-25  2.69410320E-27 -5.45791604E-28 -1.59396198E-22
  3.37952957E-29  1.88315334E-26  1.35347510E-08  3.60915492E-04  4.52446132E-19
 -2.15061102E-19 -5.27267477E-33  1.00000000E+00 -2.39132280E-24 -1.81738086E-10
  8.63758939E-10 -1.38650925E-12  1.11565840E-08 -1.37987874E-06  6.52285009E-06
 -1.04705046E-08  2.33758124E-04 -1.07385035E-05  2.69422796E-05 -4.32478532E-08
  3.57050357E-03 -3.23234890E-11 -2.60999488E-13  1.20773069E-12  8.91434015E-14
 -5.38002827E-10  8.63604254E-13 -8.00230655E-09 -2.30944368E-04  1.54514074E-08
  3.96797302E-04 -1.11448563E-85 -2.37342176E-48  1.82955587E-47 -3.22054184E-52
  7.65659521E-46 -1.02022740E-18  7.46081940E-18 -1.31331769E-22  9.79881070E-16
 -1.28528756E-10  8.81309217E-10 -1.55135639E-14  3.02166448E-07 -6.52373036E-08
  2.69082017E-07 -4.73661343E-12  2.63581554E-04 -1.11210353E-24 -3.66310625E-27
  1.80816610E-26  3.37952957E-29 -1.59395976E-22  2.80582527E-27 -6.07040041E-09
 -1.61872320E-04 -2.13051715E-19 -5.50903751E-19 -1.05910061E-32  5.33893991E-36