Jobname.Temp
SP        R                             6-31+G(d)           
Number of atoms                            I                6
Charge                                     I               -1
Multiplicity                               I                1
Number of electrons                        I               44
Number of alpha electrons                  I               22
Number of beta electrons                   I               22
Atomic numbers                             I   N=           6
           6           1           1          17           1          17
Current cartesian coordinates              R   N=          18
 -1.10445310E+00 -6.96213937E-03 -9.56602634E-03 -4.60929679E-01 -1.57410240E+00
 -1.16917951E+00 -4.42277690E-01 -2.28186417E-01  1.92099428E+00  4.97493043E+00
  2.29479529E-03  3.87104022E-03 -4.48343296E-01  1.77477737E+00 -7.90065399E-01
 -4.55741790E+00  2.85810880E-03  4.31107656E-03
Nuclear charges                            R   N=           6
  6.00000000E+00  1.00000000E+00  1.00000000E+00  1.70000000E+01  1.00000000E+00
  1.70000000E+01
Number of basis functions                  I               71
Number of contracted shells                I               23
Number of primitive shells                 I               60
Highest angular momentum                   I                2
Largest degree of contraction              I                6
Shell types                                I   N=          23
           0          -1          -1          -1           2           0
           0           0           0           0          -1          -1
          -1          -1           2           0           0           0
          -1          -1          -1          -1           2
Number of primitives per shell             I   N=          23
           6           3           1           1           1           3
           1           3           1           6           6           3
           1           1           1           3           1           6
           6           3           1           1           1
Shell to atom map                          I   N=          23
           1           1           1           1           1           2
           2           3           3           4           4           4
           4           4           4           5           5           6
           6           6           6           6           6
Primitive exponents                        R   N=          60
  3.04752490E+03  4.57369510E+02  1.03948690E+02  2.92101550E+01  9.28666300E+00
  3.16392700E+00  7.86827240E+00  1.88128850E+00  5.44249300E-01  1.68714400E-01
  4.38000000E-02  8.00000000E-01  1.87311370E+01  2.82539370E+00  6.40121700E-01
  1.61277800E-01  1.87311370E+01  2.82539370E+00  6.40121700E-01  1.61277800E-01
  2.51801000E+04  3.78035000E+03  8.60474000E+02  2.42145000E+02  7.73349000E+01
  2.62470000E+01  4.91765000E+02  1.16984000E+02  3.74153000E+01  1.37834000E+01
  5.45215000E+00  2.22588000E+00  3.18649000E+00  1.14427000E+00  4.20377000E-01
  1.42657000E-01  4.83000000E-02  7.50000000E-01  1.87311370E+01  2.82539370E+00
  6.40121700E-01  1.61277800E-01  2.51801000E+04  3.78035000E+03  8.60474000E+02
  2.42145000E+02  7.73349000E+01  2.62470000E+01  4.91765000E+02  1.16984000E+02
  3.74153000E+01  1.37834000E+01  5.45215000E+00  2.22588000E+00  3.18649000E+00
  1.14427000E+00  4.20377000E-01  1.42657000E-01  4.83000000E-02  7.50000000E-01
Contraction coefficients                   R   N=          60
  1.83470016E-03  1.40373012E-02  6.88426061E-02  2.32184421E-01  4.67941342E-01
  3.62312032E-01 -1.19332409E-01 -1.60854212E-01  1.14345648E+00  1.00000000E+00
  1.00000000E+00  1.00000000E+00  3.34945995E-02  2.34726947E-01  8.13757318E-01
  1.00000000E+00  3.34945995E-02  2.34726947E-01  8.13757318E-01  1.00000000E+00
  1.83300031E-03  1.40340024E-02  6.90970118E-02  2.37452040E-01  4.83034082E-01
  3.39856058E-01 -2.29740199E-03 -3.07140266E-02 -1.12528097E-01  4.50160390E-02
  5.89353510E-01  4.65206403E-01 -2.51831288E-01  6.15893150E-02  1.06018542E+00
  1.00000000E+00  1.00000000E+00  1.00000000E+00  3.34945995E-02  2.34726947E-01
  8.13757318E-01  1.00000000E+00  1.83300031E-03  1.40340024E-02  6.90970118E-02
  2.37452040E-01  4.83034082E-01  3.39856058E-01 -2.29740199E-03 -3.07140266E-02
 -1.12528097E-01  4.50160390E-02  5.89353510E-01  4.65206403E-01 -2.51831288E-01
  6.15893150E-02  1.06018542E+00  1.00000000E+00  1.00000000E+00  1.00000000E+00
P(S=P) Contraction coefficients            R   N=          60
  0.00000000E+00  0.00000000E+00  0.00000000E+00  0.00000000E+00  0.00000000E+00
  0.00000000E+00  6.89990956E-02  3.16423980E-01  7.44308252E-01  1.00000000E+00
  1.00000000E+00  0.00000000E+00  0.00000000E+00  0.00000000E+00  0.00000000E+00
  0.00000000E+00  0.00000000E+00  0.00000000E+00  0.00000000E+00  0.00000000E+00
  0.00000000E+00  0.00000000E+00  0.00000000E+00  0.00000000E+00  0.00000000E+00
  0.00000000E+00  3.98940055E-03  3.03180042E-02  1.29880018E-01  3.27951045E-01
  4.53527062E-01  2.52154035E-01 -1.42990127E-02  3.23572288E-01  7.43507661E-01
  1.00000000E+00  1.00000000E+00  0.00000000E+00  0.00000000E+00  0.00000000E+00
  0.00000000E+00  0.00000000E+00  0.00000000E+00  0.00000000E+00  0.00000000E+00
  0.00000000E+00  0.00000000E+00  0.00000000E+00  3.98940055E-03  3.03180042E-02
  1.29880018E-01  3.27951045E-01  4.53527062E-01  2.52154035E-01 -1.42990127E-02
  3.23572288E-01  7.43507661E-01  1.00000000E+00  1.00000000E+00  0.00000000E+00
Coordinates of each shell                  R   N=          69
 -1.10445310E+00 -6.96213937E-03 -9.56602634E-03 -1.10445310E+00 -6.96213937E-03
 -9.56602634E-03 -1.10445310E+00 -6.96213937E-03 -9.56602634E-03 -1.10445310E+00
 -6.96213937E-03 -9.56602634E-03 -1.10445310E+00 -6.96213937E-03 -9.56602634E-03
 -4.60929679E-01 -1.57410240E+00 -1.16917951E+00 -4.60929679E-01 -1.57410240E+00
 -1.16917951E+00 -4.42277690E-01 -2.28186417E-01  1.92099428E+00 -4.42277690E-01
 -2.28186417E-01  1.92099428E+00  4.97493043E+00  2.29479529E-03  3.87104022E-03
  4.97493043E+00  2.29479529E-03  3.87104022E-03  4.97493043E+00  2.29479529E-03
  3.87104022E-03  4.97493043E+00  2.29479529E-03  3.87104022E-03  4.97493043E+00
  2.29479529E-03  3.87104022E-03  4.97493043E+00  2.29479529E-03  3.87104022E-03
 -4.48343296E-01  1.77477737E+00 -7.90065399E-01 -4.48343296E-01  1.77477737E+00
 -7.90065399E-01 -4.55741790E+00  2.85810880E-03  4.31107656E-03 -4.55741790E+00
  2.85810880E-03  4.31107656E-03 -4.55741790E+00  2.85810880E-03  4.31107656E-03
 -4.55741790E+00  2.85810880E-03  4.31107656E-03 -4.55741790E+00  2.85810880E-03
  4.31107656E-03 -4.55741790E+00  2.85810880E-03  4.31107656E-03
Overlap Matrix                             R   N=        2556
  1.00000000E+00  2.19058872E-01  1.00000000E+00 -4.01738177E-17 -1.19269559E-16
  1.00000000E+00  1.69932042E-19 -1.00862030E-19  9.07463472E-35  1.00000000E+00
  1.17935271E-18  1.86509354E-19  1.13007946E-34  0.00000000E+00  1.00000000E+00
  1.84261053E-01  8.12273068E-01 -6.53434713E-17 -1.49302959E-18  0.00000000E+00
  1.00000000E+00  1.16092226E-17  8.61450089E-18  5.69754058E-01  0.00000000E+00
  0.00000000E+00  0.00000000E+00  1.00000000E+00  1.11775751E-19 -1.27706310E-18
  0.00000000E+00  5.69754058E-01  0.00000000E+00  0.00000000E+00  0.00000000E+00
  1.00000000E+00  9.06970516E-20  0.00000000E+00  0.00000000E+00  0.00000000E+00
  5.69754058E-01  0.00000000E+00  0.00000000E+00  0.00000000E+00  1.00000000E+00
  6.97718343E-02  4.02090587E-01 -5.64870481E-17 -5.83112802E-19  2.45229898E-19
  7.27666104E-01  0.00000000E+00  0.00000000E+00  0.00000000E+00  1.00000000E+00
 -1.73794621E-18 -4.35082149E-17  1.64678564E-01  8.05545808E-35  2.27919086E-35
  0.00000000E+00  5.88690339E-01  0.00000000E+00  0.00000000E+00  0.00000000E+00
  1.00000000E+00 -6.99662413E-21 -3.27920587E-19  8.05545808E-35  1.64678564E-01
  8.90308929E-38  0.00000000E+00  0.00000000E+00  5.88690339E-01  0.00000000E+00
  0.00000000E+00  0.00000000E+00  1.00000000E+00 -4.66196196E-20 -1.90215464E-20
  2.27919086E-35  8.90308929E-38  1.64678564E-01  0.00000000E+00  0.00000000E+00
  0.00000000E+00  5.88690339E-01  0.00000000E+00  0.00000000E+00  0.00000000E+00
  1.00000000E+00  7.91027073E-02  7.10235064E-01  1.21024855E-17 -2.27055419E-19
  3.15168893E-20  6.29936196E-01  0.00000000E+00  0.00000000E+00  0.00000000E+00
  3.23540475E-01  0.00000000E+00  0.00000000E+00  0.00000000E+00  1.00000000E+00
  7.91027073E-02  7.10235064E-01  4.03416183E-18 -6.81166256E-19  3.15168893E-20
  6.29936196E-01  0.00000000E+00  0.00000000E+00  0.00000000E+00  3.23540475E-01
  0.00000000E+00  0.00000000E+00  0.00000000E+00  3.33333333E-01  1.00000000E+00
  7.91027073E-02  7.10235064E-01  4.03416183E-18 -2.27055419E-19  9.45506678E-20
  6.29936196E-01  0.00000000E+00  0.00000000E+00  0.00000000E+00  3.23540475E-01
  0.00000000E+00  0.00000000E+00  0.00000000E+00  3.33333333E-01  3.33333333E-01
  1.00000000E+00  1.60589473E-34  0.00000000E+00 -3.93271521E-19  6.98737325E-18
  0.00000000E+00  0.00000000E+00  0.00000000E+00  0.00000000E+00  0.00000000E+00
  0.00000000E+00  0.00000000E+00  0.00000000E+00  0.00000000E+00  0.00000000E+00
  0.00000000E+00  0.00000000E+00  1.00000000E+00  3.21178947E-34 -6.47816588E-35
  5.45888535E-20  0.00000000E+00  6.98737325E-18  0.00000000E+00  0.00000000E+00
  0.00000000E+00  0.00000000E+00  0.00000000E+00  0.00000000E+00  0.00000000E+00
  0.00000000E+00  0.00000000E+00  0.00000000E+00  0.00000000E+00  0.00000000E+00
  1.00000000E+00  1.27868721E-36  0.00000000E+00  0.00000000E+00  5.45888535E-20
 -3.93271521E-19  0.00000000E+00  0.00000000E+00  0.00000000E+00  0.00000000E+00
  0.00000000E+00  0.00000000E+00  0.00000000E+00  0.00000000E+00  0.00000000E+00
  0.00000000E+00  0.00000000E+00  0.00000000E+00  0.00000000E+00  1.00000000E+00
  3.32625042E-02  2.75964611E-01  1.16492597E-01 -2.83688569E-01 -2.09916813E-01
  3.78481717E-01  1.61516851E-01 -3.93333873E-01 -2.91049419E-01  2.59181322E-01
  6.56679395E-02 -1.59917834E-01 -1.18332023E-01  1.52227403E-01  3.16958534E-01
  2.27305864E-01 -1.40926938E-01 -1.04279611E-01  2.53946899E-01  1.00000000E+00
  9.26056638E-02  4.77771651E-01  8.33239347E-02 -2.02914592E-01 -1.50147695E-01
  7.06160009E-01  1.82450251E-01 -4.44311931E-01 -3.28770895E-01  6.41805331E-01
  1.35953587E-01 -3.31080940E-01 -2.44985042E-01  3.60516029E-01  3.99478267E-01
  3.78273601E-01 -3.33320660E-02 -2.46642335E-02  6.00635687E-02  6.58292049E-01
  1.00000000E+00  3.32676716E-02  2.75987037E-01  1.19880197E-01 -4.00504301E-02
  3.49508525E-01  3.78495886E-01  1.66204524E-01 -5.55267911E-02  4.84566254E-01
  2.59184257E-01  6.75720353E-02 -2.25749468E-02  1.97005034E-01  1.54208058E-01
  1.22777119E-01  4.19557977E-01 -2.04727465E-02  1.78659740E-01 -5.96879182E-02
  1.81555713E-02  1.48253125E-01  1.00000000E+00  9.26096285E-02  4.77787679E-01
  8.57420087E-02 -2.86453009E-02  2.49979259E-01  7.06176014E-01  1.87742674E-01
 -6.27224096E-02  5.47360336E-01  6.41811407E-01  1.39895413E-01 -4.67372557E-02
  4.07862519E-01  3.60994073E-01  3.53560577E-01  4.23749995E-01 -4.84185593E-03
  4.22534770E-02 -1.41163425E-02  1.48253125E-01  4.00060499E-01  6.58292049E-01
  1.00000000E+00  2.86602598E-47  2.57391962E-10  1.48030984E-09  2.25403305E-12
  3.27188138E-12  7.76801207E-05  3.86227660E-04  5.88099796E-07  8.53666618E-07
  2.79920930E-03  7.11478609E-03  1.08335178E-05  1.57255837E-05  2.17201281E-12
  9.03275581E-16  9.08848269E-16  5.72599578E-15  8.31167004E-15  1.26559849E-17
  6.22923666E-11  1.74440850E-04  7.68971439E-11  1.84083338E-04  1.00000000E+00
  1.75252250E-22  3.93822837E-08  1.86834081E-07  2.84487872E-10  4.12953381E-10
  7.92505720E-04  3.73384324E-03  5.68543549E-06  8.25279403E-06  2.24863088E-02
  5.63642461E-02  8.58245151E-05  1.24580087E-04  5.24780655E-09  4.24444085E-11
  4.24577693E-11  1.37284099E-11  1.99277153E-11  3.03434645E-14  1.87307249E-08
  1.68920963E-03  2.21594685E-08  1.77780439E-03  2.67196851E-01  1.00000000E+00
 -1.01152703E-21 -7.68809587E-08 -3.54239763E-07 -5.56382880E-10 -8.07627370E-10
 -5.83747151E-04 -2.52567629E-03 -4.20174443E-06 -6.09911614E-06 -4.54288913E-03
 -7.82730994E-03 -1.73552592E-05 -2.51923322E-05 -1.30523711E-08 -1.10406093E-10
 -1.10440906E-10 -3.49519771E-11 -5.07351581E-11 -7.90642449E-14 -3.70535114E-08
 -1.06942115E-03 -4.36966667E-08 -1.12183658E-03  1.16551256E-15 -1.09032216E-15
  1.00000000E+00 -1.54022848E-24 -1.17064832E-10 -5.56382880E-10  1.11573364E-08
 -1.22975525E-12 -8.88858089E-07 -4.20174443E-06  2.33763806E-04 -9.28698103E-09
 -6.91735068E-06 -1.73552592E-05  3.57052703E-03 -3.83597731E-08 -2.08206573E-11
  7.78005274E-13 -1.68165777E-13  5.38052108E-10 -7.90642449E-14  1.18923933E-12
 -1.07455031E-08 -3.10131695E-04 -1.85912383E-09 -4.77297990E-05  2.90962126E-19
 -2.50340433E-19  3.28082671E-33  1.00000000E+00 -2.23574578E-24 -1.69927519E-10
 -8.07627370E-10 -1.22975525E-12  1.11563985E-08 -1.29023762E-06 -6.09911614E-06
 -9.28698103E-09  2.33756723E-04 -1.00410022E-05 -2.51923322E-05 -3.83597731E-08
  3.57049778E-03 -3.02225919E-11 -2.44027048E-13  1.12925031E-12 -7.90642449E-14
  5.37991809E-10  8.19187505E-13 -7.99609283E-09 -2.30779499E-04  1.54640349E-08
  3.97012435E-04  1.22611635E-18 -4.39456014E-19  3.16977370E-33  2.37680779E-36
  1.00000000E+00  2.71490645E-07  1.86414878E-04  4.77496238E-04  7.27072317E-07
  1.05539463E-06  1.06001357E-02  3.76636250E-02  5.73495181E-05  8.32467032E-05
  1.06727404E-01  2.45228106E-01  3.73403082E-04  5.42019822E-04  3.28415135E-04
  2.80589403E-05  2.80597113E-05  7.92147184E-07  1.14985520E-06  1.75085753E-09
  1.74463041E-04  1.81595109E-02  1.89973840E-04  1.88797927E-02  1.11792091E-02
  3.35814146E-01  2.89022164E-19 -5.03970494E-19 -6.32093108E-19  1.00000000E+00
 -1.34740639E-06 -5.82414061E-04 -1.41308925E-03 -2.28133661E-06 -3.31151434E-06
 -1.81398219E-02 -5.83884184E-02 -9.99679463E-05 -1.45110233E-04 -6.45286188E-02
 -9.90757401E-02 -2.28086284E-04 -3.31082664E-04 -1.08428980E-03 -1.01709782E-04
 -1.01712578E-04 -2.73242160E-06 -3.96629471E-06 -6.35104150E-09 -5.22458181E-04
 -2.72474847E-02 -5.67051308E-04 -2.82541256E-02  7.91176021E-17 -4.21805163E-20
  3.25434154E-01  0.00000000E+00  1.40883979E-36  1.35582222E-16  1.00000000E+00
 -2.05166409E-09 -8.86828224E-07 -2.28133661E-06  8.51484020E-05 -5.04236519E-09
 -2.76210811E-05 -9.99679463E-05  7.26420847E-03 -2.20955947E-07 -9.82562137E-05
 -2.28086284E-04  5.07169114E-02 -5.04131804E-07 -1.81384056E-06  7.94681723E-09
 -1.54875356E-07  9.25986481E-05 -6.35104150E-09  2.04667824E-07 -1.51512658E-04
 -7.90175936E-03 -2.41258356E-05 -1.20210355E-03  2.17896410E-22 -1.32977580E-19
  0.00000000E+00  3.25434154E-01  6.60085077E-38 -2.81603551E-19  0.00000000E+00
  1.00000000E+00 -2.97812916E-09 -1.28729113E-06 -3.31151434E-06 -5.04236519E-09
  8.51445564E-05 -4.00938669E-05 -1.45110233E-04 -2.20955947E-07  7.26403996E-03
 -1.42625538E-04 -3.31082664E-04 -5.04131804E-07  5.07165269E-02 -2.63291221E-06
 -2.24805870E-07  1.15291615E-08 -6.35104150E-09  9.25938044E-05  1.40990413E-07
 -1.12745701E-04 -5.87996680E-03  2.00676662E-04  9.99899575E-03  3.60935556E-20
 -1.34555284E-19  1.40883979E-36  6.60085077E-38  3.25434154E-01 -6.58690350E-19
 -1.94935597E-35  2.10054321E-37  1.00000000E+00  9.89259900E-04  1.22853334E-02
  1.65854224E-02  2.52542335E-05  3.66582275E-05  5.71469365E-02  1.30759405E-01
  1.99104278E-04  2.89013322E-04  2.26261375E-01  4.40505575E-01  6.70747503E-04
  9.73635353E-04  1.75892861E-02  6.77605134E-03  6.77607909E-03  2.85183846E-05
  4.13963635E-05  6.30332713E-08  1.19271944E-02  7.95093445E-02  1.24074686E-02
  8.15515521E-02  3.40560234E-02  2.55649358E-01 -1.07317387E-17  1.01859509E-19
  1.01859509E-19  8.25875607E-01  0.00000000E+00 -1.49370956E-19  0.00000000E+00
  1.00000000E+00 -4.40000778E-03 -4.43456719E-02 -5.37916176E-02 -9.29055984E-05
 -1.34858758E-04 -1.42200940E-01 -2.68427227E-01 -4.95438902E-04 -7.19163066E-04
 -2.44085466E-01 -2.83364367E-01 -7.23586681E-04 -1.05033499E-03 -5.91335977E-02
 -2.64088238E-02 -2.64089320E-02 -9.87269633E-05 -1.43308863E-04 -2.45664396E-07
 -4.04530612E-02 -1.73243578E-01 -4.19401468E-02 -1.77083645E-01  1.28218154E-20
  3.79655371E-19  7.13886845E-02  3.51574117E-36  3.51574117E-36  0.00000000E+00
  6.24326097E-01  0.00000000E+00  0.00000000E+00  0.00000000E+00  1.00000000E+00
 -6.69978861E-06 -6.75241141E-05 -9.29055984E-05  7.22290569E-03 -2.05346266E-07
 -2.16526035E-04 -4.95438902E-04  5.69457210E-02 -1.09505273E-06 -3.71663213E-04
 -7.23586681E-04  1.91841618E-01 -1.59932045E-06 -1.04382631E-04 -2.58708069E-05
 -4.02122611E-05  8.15646860E-03 -2.45664396E-07  1.80279811E-05 -1.17313711E-02
 -5.02405665E-02 -1.78439071E-03 -7.53422283E-03  1.97231997E-25  5.02076428E-20
  3.51574117E-36  7.13886845E-02  3.68027399E-38 -1.00388162E-20  0.00000000E+00
  6.24326097E-01  0.00000000E+00  0.00000000E+00  0.00000000E+00  1.00000000E+00
 -9.72519617E-06 -9.80158172E-05 -1.34858758E-04 -2.05346266E-07  7.22274908E-03
 -3.14302180E-04 -7.19163066E-04 -1.09505273E-06  5.69448858E-02 -5.39494283E-04
 -1.05033499E-03 -1.59932045E-06  1.91840398E-01 -1.51518447E-04 -5.83705768E-05
 -3.75534645E-05 -2.45664396E-07  8.15628124E-03  1.24193781E-05 -8.72971063E-03
 -3.73857074E-02  1.48424112E-02  6.26690288E-02 -3.96643775E-21  5.02076428E-20
  3.51574117E-36  3.68027399E-38  7.13886845E-02  0.00000000E+00  0.00000000E+00
  0.00000000E+00  6.24326097E-01  3.27602195E-19  0.00000000E+00  0.00000000E+00
  1.00000000E+00  1.28191540E-02  8.36549985E-02  4.69486095E-02  7.14875460E-05
  1.03769007E-04  1.89414985E-01  2.10541894E-01  3.20587202E-04  4.65354001E-04
  4.27096218E-01  5.69954017E-01  8.67855609E-04  1.25975110E-03  7.67795934E-02
  6.38086338E-02  6.38086671E-02  3.42090804E-05  4.96567932E-05  7.56112339E-08
  7.27403056E-02  2.23288084E-01  7.38487866E-02  2.26085935E-01  1.51720824E-02
  1.18939117E-01  2.71315854E-17 -2.14096645E-22  6.37734414E-20  4.87859821E-01
  2.48405121E-16  0.00000000E+00 -2.64474142E-21  8.10628338E-01  0.00000000E+00
  0.00000000E+00  0.00000000E+00  1.00000000E+00 -3.38899589E-02 -2.04324117E-01
 -8.07302899E-02 -1.76431477E-04 -2.56102218E-04 -3.93496648E-01 -2.79804786E-01
 -6.65997938E-04 -9.66741039E-04 -5.42754345E-01 -2.97712085E-01 -1.10287187E-03
 -1.60089309E-03 -1.74069491E-01 -1.60798899E-01 -1.60798982E-01 -6.06034666E-05
 -8.79700295E-05 -1.90541662E-07 -1.62438131E-01 -4.10550602E-01 -1.64348312E-01
 -4.14268528E-01  5.38078942E-18 -8.44583821E-19  1.98368281E-02  0.00000000E+00
  5.17188664E-36  1.78553222E-16  2.45534554E-01  0.00000000E+00 -1.03249271E-36
  0.00000000E+00  7.04751978E-01  0.00000000E+00  0.00000000E+00  3.90394578E-16
  1.00000000E+00 -5.16034452E-05 -3.11119539E-04 -1.76431477E-04  3.51387498E-02
 -3.89960839E-07 -5.99168112E-04 -6.65997938E-04  1.57580554E-01 -1.47203390E-06
 -8.26439307E-04 -1.10287187E-03  4.26584432E-01 -2.43764234E-06 -2.94616515E-04
 -2.15279725E-04 -2.44844838E-04  1.68150145E-02 -1.90541662E-07  3.71656875E-05
 -4.71069913E-02 -1.19059506E-01 -6.99238377E-03 -1.76255204E-02 -5.95612130E-22
  1.22189523E-24  0.00000000E+00  1.98368281E-02  0.00000000E+00  0.00000000E+00
  0.00000000E+00  2.45534554E-01  0.00000000E+00  0.00000000E+00  0.00000000E+00
  7.04751978E-01  0.00000000E+00  0.00000000E+00  0.00000000E+00  1.00000000E+00
 -7.49058898E-05 -4.51611048E-04 -2.56102218E-04 -3.89960839E-07  3.51384524E-02
 -8.69733028E-04 -9.66741039E-04 -1.47203390E-06  1.57579431E-01 -1.19963253E-03
 -1.60089309E-03 -2.43764234E-06  4.26582573E-01 -4.27655791E-04 -3.55408651E-04
 -3.12493262E-04 -1.90541662E-07  1.68148692E-02  2.56036067E-05 -3.50539079E-02
 -8.85962113E-02  5.81620574E-02  1.46607590E-01 -2.57233456E-23  1.33189767E-20
  5.17188664E-36  0.00000000E+00  1.98368281E-02 -5.73461328E-21 -1.03249271E-36
  0.00000000E+00  2.45534554E-01  0.00000000E+00  0.00000000E+00  0.00000000E+00
  7.04751978E-01  0.00000000E+00  0.00000000E+00  0.00000000E+00  1.00000000E+00
  2.05043691E-09  1.16499228E-04  3.62380329E-04  6.00418376E-07  8.71547870E-07
  1.30094039E-02  4.57872787E-02  8.07628075E-05  1.17232676E-04  8.59672218E-02
  1.86203433E-01  3.14714903E-04  4.56829962E-04  1.55660055E-04  6.41740441E-06
  6.41784624E-06  4.23258424E-07  6.14388220E-07  1.00342638E-09  9.06246655E-05
  2.01942678E-02  1.01083138E-04  2.10217553E-02  2.54826105E-03  1.53282616E-01
 -4.85346160E-16  1.32793182E-22 -7.88594115E-20  7.26013263E-01  2.08303665E-17
  3.39035913E-21  3.39035913E-21  6.08667132E-01  0.00000000E+00  1.99400689E-19
  1.99400689E-19  3.57204234E-01  0.00000000E+00  0.00000000E+00  6.80911114E-20
  1.00000000E+00  1.05073018E-11  6.50288471E-06  2.20038803E-05 -1.51255602E-08
  4.86344714E-08  3.95401023E-03  1.61207091E-02  1.35030330E-05  3.56310867E-05
  7.29374809E-02  1.75358783E-01  2.35827399E-04  3.87589897E-04  5.66499911E-06
  6.10711160E-07  2.03620458E-07 -1.63219674E-08  2.09078783E-08 -3.60759214E-11
  1.21271483E-05  8.58232110E-03  5.69576550E-06  7.88169691E-03  2.54826105E-03
  1.53282616E-01 -1.61782053E-16  3.98379545E-22 -7.88594115E-20  7.26013263E-01
  6.94345549E-18  1.01710774E-20  3.39035913E-21  6.08667132E-01  0.00000000E+00
  5.98202066E-19  1.99400689E-19  3.57204234E-01  0.00000000E+00  0.00000000E+00
  6.80911114E-20  3.33333333E-01  1.00000000E+00  1.05125378E-11  6.50316704E-06
  2.20048360E-05  3.35062474E-08 -2.19536611E-08  3.95403347E-03  1.61208039E-02
  2.45467699E-05  1.96007749E-05  7.29375143E-02  1.75358863E-01  2.67014826E-04
  3.42319593E-04  5.66544287E-06  2.03622389E-07  6.10681322E-07  1.44047827E-08
 -2.36908015E-08 -3.60734275E-11  8.91056266E-06  8.10649941E-03  1.74909279E-05
  9.50653590E-03  2.54826105E-03  1.53282616E-01 -1.61782053E-16  1.32793182E-22
 -2.36578235E-19  7.26013263E-01  6.94345549E-18  3.39035913E-21  1.01710774E-20
  6.08667132E-01  0.00000000E+00  1.99400689E-19  5.98202066E-19  3.57204234E-01
  0.00000000E+00  0.00000000E+00  2.04273334E-19  3.33333333E-01  3.33333333E-01
  1.00000000E+00  5.38002720E-12  2.90099872E-07  9.39810287E-07 -2.76571176E-05
  2.17031826E-09  2.38823262E-05  8.78054773E-05 -6.28091767E-03  2.15212705E-07
  3.43641076E-05  5.56103631E-05 -1.77377176E-02  1.82610926E-07  4.25242787E-07
 -1.43376043E-08  1.63891458E-08 -1.68634035E-05  1.62403453E-09 -3.86224456E-08
  4.30492667E-05  6.36817327E-03  7.04203832E-06  9.70073838E-04  0.00000000E+00
 -2.25274189E-36  2.30004537E-22 -2.80214736E-16  4.17223513E-53 -2.02564369E-34
  5.87227426E-21  1.20264177E-17  1.78080334E-53  0.00000000E+00  3.45372124E-19
  0.00000000E+00  0.00000000E+00  0.00000000E+00  0.00000000E+00  0.00000000E+00
  0.00000000E+00  0.00000000E+00  0.00000000E+00  0.00000000E+00  1.00000000E+00
  7.80947326E-12  4.21099579E-07  1.36419818E-06  2.17031826E-09 -2.76554624E-05
  3.46668113E-05  1.27455587E-04  2.15212705E-07 -6.28075354E-03  4.98818257E-05
  8.07222022E-05  1.82610926E-07 -1.77375783E-02  6.17268658E-07  2.37883154E-08
 -2.08103643E-08  1.62403453E-09 -1.68621649E-05 -2.66054495E-08  3.20344176E-05
  4.73877344E-03 -5.85750797E-05 -8.06899221E-03  1.01399056E-35  4.11468239E-34
 -1.36588507E-19  4.17223513E-53 -2.80214736E-16 -2.02564369E-34  5.87227426E-21
  1.78080334E-53  1.20264177E-17  0.00000000E+00  3.45372124E-19  0.00000000E+00
  0.00000000E+00  0.00000000E+00  1.17937265E-19  0.00000000E+00  0.00000000E+00
  0.00000000E+00  0.00000000E+00  0.00000000E+00  0.00000000E+00  1.00000000E+00
  1.18913017E-14  6.41198448E-10  2.17031826E-09 -6.11296405E-08 -4.21103236E-08
  5.27863402E-08  2.15212705E-07 -1.38825110E-05 -9.56355604E-06  7.59538855E-08
  1.82610926E-07 -3.92051087E-05 -2.70085943E-05  1.00781236E-09 -3.16899473E-11
 -3.16874534E-11 -3.86224456E-08 -2.66054495E-08  6.10612231E-07  9.28996793E-06
  1.37424235E-03 -2.49214264E-06 -3.43304348E-04  7.48576224E-41 -2.19994325E-39
  4.17223513E-53 -1.36588507E-19  2.30004537E-22 -9.89083832E-38  1.78080334E-53
  5.87227426E-21  5.87227426E-21  3.53993769E-37  0.00000000E+00  3.45372124E-19
  3.45372124E-19  0.00000000E+00  0.00000000E+00  1.17937265E-19  0.00000000E+00
  0.00000000E+00  0.00000000E+00  0.00000000E+00  0.00000000E+00  0.00000000E+00
  1.00000000E+00  3.32718936E-02  2.76005359E-01  1.18791115E-01  3.22590549E-01
 -1.41312307E-01  3.78507461E-01  1.64687124E-01  4.47226293E-01 -1.95909581E-01
  2.59186654E-01  6.69536869E-02  1.81820220E-01 -7.96472027E-02  1.53575714E-01
  3.75013463E-01  1.67995932E-01  1.63391937E-01 -7.15746065E-02 -1.94368844E-01
  1.81682593E-02  1.48294479E-01  1.81512043E-02  1.48238888E-01  7.17904221E-11
  2.09768374E-08 -4.14075668E-08  1.35331894E-08 -6.06183235E-09  1.84767468E-04
 -5.52097531E-04  1.80441428E-04 -8.08239397E-05  1.22486889E-02 -4.14489691E-02
  1.35467209E-02 -6.06789343E-03  7.34853035E-02 -1.63722287E-01  5.35091746E-02
 -2.39680120E-02  9.75443263E-05  1.51695241E-05  7.29471892E-06 -5.22077619E-05
  2.33850788E-05 -7.64291952E-06  1.00000000E+00  9.26128675E-02  4.77800773E-01
  8.49590296E-02  2.30715740E-01 -1.01066115E-01  7.06189089E-01  1.86026373E-01
  5.05175408E-01 -2.21294464E-01  6.41816371E-01  1.38615026E-01  3.76424596E-01
 -1.64894565E-01  3.60852357E-01  4.13219743E-01  3.64262567E-01  3.86402436E-02
 -1.69265405E-02 -4.59659125E-02  1.48294479E-01  4.00129225E-01  1.48238888E-01
  4.00036836E-01  1.80880313E-04  1.74840125E-03 -1.10445710E-03  3.60968498E-04
 -1.61686241E-04  1.86417219E-02 -2.79216103E-02  9.12558912E-03 -4.08756500E-03
  8.08795877E-02 -1.75821165E-01  5.74634377E-02 -2.57392190E-02  2.25169313E-01
 -4.13050928E-01  1.34996980E-01 -6.04683075E-02  2.07480443E-02  9.13367017E-03
  8.02336785E-03 -7.36099464E-03  3.29716182E-03 -1.07760777E-03  6.58292049E-01
  1.00000000E+00  1.52163868E-16  1.74349016E-04 -5.69913820E-04  1.62083759E-06
  2.29042379E-06  5.20728858E-03 -1.47057508E-02  4.18232246E-05  5.91008681E-05
  8.36995277E-03 -1.20832082E-02  3.43647010E-05  4.85611447E-05  2.24570658E-04
  2.64087128E-07  2.65895761E-07 -1.10493428E-06 -1.56139503E-06  4.44061483E-09
  1.90817272E-07  1.35493243E-03  1.88866619E-07  1.35138272E-03  0.00000000E+00
  6.63622806E-83 -9.43129267E-82  5.57341634E-86  4.35371367E-86  3.20314940E-18
 -2.74338831E-17  1.62120356E-21  1.26641465E-21  8.38946025E-08 -6.01819842E-07
  3.55645049E-11  2.77814650E-11  1.89420805E-04 -7.92645825E-04  4.68413541E-08
  3.65904557E-08  1.96131428E-28  3.68683386E-32  3.68680717E-32 -2.00713433E-32
 -1.56788720E-32  9.26541935E-37  1.89605734E-07  1.35273092E-03  1.00000000E+00
  2.83142597E-08  2.84862408E-03 -7.87331260E-03  2.23917382E-05  3.16420165E-05
  4.27522091E-02 -1.14589976E-01  3.25894432E-04  4.60525080E-04  6.62281148E-02
 -9.42919420E-02  2.68166727E-04  3.78949412E-04  5.54959801E-03  1.17213946E-04
  1.17257749E-04 -2.67599266E-05 -3.78147526E-05  1.07545335E-07  1.17218529E-05
  1.18529500E-02  1.16249902E-05  1.18234238E-02  6.63622806E-83  2.60582042E-45
 -2.00870194E-44  1.18704112E-48  9.27265583E-49  3.52103502E-15 -2.57435971E-14
  1.52131622E-18  1.18838694E-18  1.12037479E-06 -7.66528130E-06  4.52979306E-10
  3.53847995E-10  1.58742094E-03 -6.54103655E-03  3.86542134E-07  3.01950127E-07
  2.42248303E-21  7.97935706E-24  7.97935378E-24 -2.47137565E-25 -1.93053260E-25
  1.14084700E-29  1.16617144E-05  1.18346385E-02  2.67196851E-01  1.00000000E+00
  9.29292818E-08  3.33899050E-03 -8.47338303E-03  2.65268183E-05  3.74853447E-05
  1.81460124E-02 -3.60335756E-02  1.38866411E-04  1.96233683E-04  7.60729258E-03
 -3.14179840E-04  3.08321108E-05  4.35692019E-05  7.56046943E-03  1.75389474E-04
  1.75458369E-04 -3.92341145E-05 -5.54421675E-05  1.69152377E-07  1.77958622E-05
  5.69285703E-03  1.77284561E-05  5.70448131E-03  9.43129267E-82  2.00870194E-44
 -1.54075625E-43  9.15033047E-48  7.14784549E-48  8.63521115E-15 -6.21686146E-14
  3.73175414E-18  2.91508619E-18  1.08789378E-06 -7.15742445E-06  4.40823790E-10
  3.44352628E-10  5.52187175E-04 -2.01400818E-03  1.34593941E-07  1.05139011E-07
  9.22860976E-21  3.10038965E-23  3.10038837E-23 -9.50843863E-25 -7.42758422E-25
  4.43280626E-29  1.77585177E-05  5.70149507E-03 -1.80207030E-15  9.70546547E-17
  1.00000000E+00 -2.64291316E-10 -9.49610471E-06  2.65268183E-05  8.53818025E-04
 -1.06608497E-07 -5.16073447E-05  1.38866411E-04  1.27938003E-02 -5.58089520E-07
 -2.16351759E-05  3.08321108E-05  1.05268224E-02 -1.23911015E-07 -2.47988663E-05
  2.79804709E-06 -4.99004428E-07 -1.00380293E-03  1.69152377E-07  4.03417854E-06
 -6.85059261E-06 -2.19148945E-03 -9.95364074E-07 -3.20278073E-04 -5.57341634E-86
 -1.18704112E-48  9.15033047E-48  7.65569552E-46 -4.22401470E-52 -5.10297248E-19
  3.73175414E-18  9.79844380E-16 -1.72266831E-22 -6.42890132E-11  4.40823790E-10
  3.02162114E-07 -2.03494964E-14 -3.26314656E-08  1.34593941E-07  2.63580230E-04
 -6.21318309E-12 -5.56240162E-25  9.04388874E-27 -1.83217252E-27 -1.59386630E-22
  4.43280626E-29  7.35767379E-27  7.65784577E-06  2.45860441E-03  5.84210351E-19
 -8.75120352E-19 -2.83538872E-34  1.00000000E+00 -3.73473024E-10 -1.34190521E-05
  3.74853447E-05 -1.06608497E-07  8.53742818E-04 -7.29269180E-05  1.96233683E-04
 -5.58089520E-07  1.27934066E-02 -3.05729099E-05  4.35692019E-05 -1.23911015E-07
  1.05267350E-02 -3.50435563E-05 -7.04871877E-07  3.95367487E-06  1.69152377E-07
 -1.00368360E-03  2.85448088E-06 -5.09784862E-06 -1.63079052E-03  8.25727251E-06
  2.65694070E-03 -4.35371367E-86 -9.27265583E-49  7.14784549E-48 -4.22401470E-52
  7.65569763E-46 -3.98622311E-19  2.91508619E-18 -1.72266831E-22  9.79844466E-16
 -5.02198182E-11  3.44352628E-10 -2.03494964E-14  3.02162124E-07 -2.54903006E-08
  1.05139011E-07 -6.21318309E-12  2.63580233E-04 -4.34510945E-25 -1.43121513E-27
  7.06469837E-27  4.43280626E-29 -1.59386652E-22  9.41894395E-27 -3.43312061E-06
 -1.10222714E-03 -4.10378725E-20 -1.48271032E-18 -5.77133272E-34  1.94374416E-36