Jobname.Temp
SP        R                             6-31+G(d)           
Number of atoms                            I                6
Charge                                     I               -1
Multiplicity                               I                1
Number of electrons                        I               44
Number of alpha electrons                  I               22
Number of beta electrons                   I               22
Atomic numbers                             I   N=           6
           6           1           1          17           1          17
Current cartesian coordinates              R   N=          18
 -1.66015855E-04 -5.38275627E-04 -3.31069515E-03 -3.30826892E-04 -1.63459586E+00
 -1.21113111E+00 -3.79632372E-06 -2.29517681E-01  2.01529167E+00  4.41849030E+00
  1.34293345E-03  2.79933741E-03 -1.63071648E-04  1.86130509E+00 -8.16652031E-01
 -4.41882814E+00  1.68632334E-03  3.52962515E-03
Nuclear charges                            R   N=           6
  6.00000000E+00  1.00000000E+00  1.00000000E+00  1.70000000E+01  1.00000000E+00
  1.70000000E+01
Number of basis functions                  I               71
Number of contracted shells                I               23
Number of primitive shells                 I               60
Highest angular momentum                   I                2
Largest degree of contraction              I                6
Shell types                                I   N=          23
           0          -1          -1          -1           2           0
           0           0           0           0          -1          -1
          -1          -1           2           0           0           0
          -1          -1          -1          -1           2
Number of primitives per shell             I   N=          23
           6           3           1           1           1           3
           1           3           1           6           6           3
           1           1           1           3           1           6
           6           3           1           1           1
Shell to atom map                          I   N=          23
           1           1           1           1           1           2
           2           3           3           4           4           4
           4           4           4           5           5           6
           6           6           6           6           6
Primitive exponents                        R   N=          60
  3.04752490E+03  4.57369510E+02  1.03948690E+02  2.92101550E+01  9.28666300E+00
  3.16392700E+00  7.86827240E+00  1.88128850E+00  5.44249300E-01  1.68714400E-01
  4.38000000E-02  8.00000000E-01  1.87311370E+01  2.82539370E+00  6.40121700E-01
  1.61277800E-01  1.87311370E+01  2.82539370E+00  6.40121700E-01  1.61277800E-01
  2.51801000E+04  3.78035000E+03  8.60474000E+02  2.42145000E+02  7.73349000E+01
  2.62470000E+01  4.91765000E+02  1.16984000E+02  3.74153000E+01  1.37834000E+01
  5.45215000E+00  2.22588000E+00  3.18649000E+00  1.14427000E+00  4.20377000E-01
  1.42657000E-01  4.83000000E-02  7.50000000E-01  1.87311370E+01  2.82539370E+00
  6.40121700E-01  1.61277800E-01  2.51801000E+04  3.78035000E+03  8.60474000E+02
  2.42145000E+02  7.73349000E+01  2.62470000E+01  4.91765000E+02  1.16984000E+02
  3.74153000E+01  1.37834000E+01  5.45215000E+00  2.22588000E+00  3.18649000E+00
  1.14427000E+00  4.20377000E-01  1.42657000E-01  4.83000000E-02  7.50000000E-01
Contraction coefficients                   R   N=          60
  1.83470016E-03  1.40373012E-02  6.88426061E-02  2.32184421E-01  4.67941342E-01
  3.62312032E-01 -1.19332409E-01 -1.60854212E-01  1.14345648E+00  1.00000000E+00
  1.00000000E+00  1.00000000E+00  3.34945995E-02  2.34726947E-01  8.13757318E-01
  1.00000000E+00  3.34945995E-02  2.34726947E-01  8.13757318E-01  1.00000000E+00
  1.83300031E-03  1.40340024E-02  6.90970118E-02  2.37452040E-01  4.83034082E-01
  3.39856058E-01 -2.29740199E-03 -3.07140266E-02 -1.12528097E-01  4.50160390E-02
  5.89353510E-01  4.65206403E-01 -2.51831288E-01  6.15893150E-02  1.06018542E+00
  1.00000000E+00  1.00000000E+00  1.00000000E+00  3.34945995E-02  2.34726947E-01
  8.13757318E-01  1.00000000E+00  1.83300031E-03  1.40340024E-02  6.90970118E-02
  2.37452040E-01  4.83034082E-01  3.39856058E-01 -2.29740199E-03 -3.07140266E-02
 -1.12528097E-01  4.50160390E-02  5.89353510E-01  4.65206403E-01 -2.51831288E-01
  6.15893150E-02  1.06018542E+00  1.00000000E+00  1.00000000E+00  1.00000000E+00
P(S=P) Contraction coefficients            R   N=          60
  0.00000000E+00  0.00000000E+00  0.00000000E+00  0.00000000E+00  0.00000000E+00
  0.00000000E+00  6.89990956E-02  3.16423980E-01  7.44308252E-01  1.00000000E+00
  1.00000000E+00  0.00000000E+00  0.00000000E+00  0.00000000E+00  0.00000000E+00
  0.00000000E+00  0.00000000E+00  0.00000000E+00  0.00000000E+00  0.00000000E+00
  0.00000000E+00  0.00000000E+00  0.00000000E+00  0.00000000E+00  0.00000000E+00
  0.00000000E+00  3.98940055E-03  3.03180042E-02  1.29880018E-01  3.27951045E-01
  4.53527062E-01  2.52154035E-01 -1.42990127E-02  3.23572288E-01  7.43507661E-01
  1.00000000E+00  1.00000000E+00  0.00000000E+00  0.00000000E+00  0.00000000E+00
  0.00000000E+00  0.00000000E+00  0.00000000E+00  0.00000000E+00  0.00000000E+00
  0.00000000E+00  0.00000000E+00  0.00000000E+00  3.98940055E-03  3.03180042E-02
  1.29880018E-01  3.27951045E-01  4.53527062E-01  2.52154035E-01 -1.42990127E-02
  3.23572288E-01  7.43507661E-01  1.00000000E+00  1.00000000E+00  0.00000000E+00
Coordinates of each shell                  R   N=          69
 -1.66015855E-04 -5.38275627E-04 -3.31069515E-03 -1.66015855E-04 -5.38275627E-04
 -3.31069515E-03 -1.66015855E-04 -5.38275627E-04 -3.31069515E-03 -1.66015855E-04
 -5.38275627E-04 -3.31069515E-03 -1.66015855E-04 -5.38275627E-04 -3.31069515E-03
 -3.30826892E-04 -1.63459586E+00 -1.21113111E+00 -3.30826892E-04 -1.63459586E+00
 -1.21113111E+00 -3.79632372E-06 -2.29517681E-01  2.01529167E+00 -3.79632372E-06
 -2.29517681E-01  2.01529167E+00  4.41849030E+00  1.34293345E-03  2.79933741E-03
  4.41849030E+00  1.34293345E-03  2.79933741E-03  4.41849030E+00  1.34293345E-03
  2.79933741E-03  4.41849030E+00  1.34293345E-03  2.79933741E-03  4.41849030E+00
  1.34293345E-03  2.79933741E-03  4.41849030E+00  1.34293345E-03  2.79933741E-03
 -1.63071648E-04  1.86130509E+00 -8.16652031E-01 -1.63071648E-04  1.86130509E+00
 -8.16652031E-01 -4.41882814E+00  1.68632334E-03  3.52962515E-03 -4.41882814E+00
  1.68632334E-03  3.52962515E-03 -4.41882814E+00  1.68632334E-03  3.52962515E-03
 -4.41882814E+00  1.68632334E-03  3.52962515E-03 -4.41882814E+00  1.68632334E-03
  3.52962515E-03 -4.41882814E+00  1.68632334E-03  3.52962515E-03
Overlap Matrix                             R   N=        2556
  1.00000000E+00  2.19058872E-01  1.00000000E+00  1.42069374E-20  0.00000000E+00
  1.00000000E+00 -3.25886727E-20 -5.57591794E-20  0.00000000E+00  1.00000000E+00
 -1.84031701E-20  4.66273386E-20  0.00000000E+00  1.37949153E-38  1.00000000E+00
  1.84261053E-01  8.12273068E-01  0.00000000E+00  0.00000000E+00 -3.73257397E-19
  1.00000000E+00  2.30728589E-21  0.00000000E+00  5.69754058E-01  0.00000000E+00
  0.00000000E+00  0.00000000E+00  1.00000000E+00  5.67797310E-21  0.00000000E+00
  0.00000000E+00  5.69754058E-01  0.00000000E+00  0.00000000E+00  0.00000000E+00
  1.00000000E+00  4.54237848E-20 -3.19265775E-19  0.00000000E+00  0.00000000E+00
  5.69754058E-01  3.56267606E-19  0.00000000E+00  0.00000000E+00  1.00000000E+00
  6.97718343E-02  4.02090587E-01 -7.49516627E-21 -4.53075337E-20 -1.19922660E-19
  7.27666104E-01  0.00000000E+00  0.00000000E+00  2.59243861E-19  1.00000000E+00
  2.41016215E-22 -5.23366861E-21  1.64678564E-01  5.14029158E-40  2.75167048E-39
  0.00000000E+00  5.88690339E-01  0.00000000E+00  0.00000000E+00  0.00000000E+00
  1.00000000E+00 -2.91378119E-21 -1.97458278E-20  5.14029158E-40  1.64678564E-01
  8.22446653E-39  0.00000000E+00  0.00000000E+00  5.88690339E-01  0.00000000E+00
  0.00000000E+00  0.00000000E+00  1.00000000E+00 -4.29379711E-21 -8.37386977E-20
  2.75167048E-39  8.22446653E-39  1.64678564E-01  1.32089854E-19  0.00000000E+00
  0.00000000E+00  5.88690339E-01  0.00000000E+00  0.00000000E+00  0.00000000E+00
  1.00000000E+00  7.91027073E-02  7.10235064E-01 -8.09795281E-20 -7.95907768E-20
 -3.18363107E-19  6.29936196E-01  0.00000000E+00  0.00000000E+00  2.24425861E-19
  3.23540475E-01 -1.10120255E-20  0.00000000E+00  0.00000000E+00  1.00000000E+00
  7.91027073E-02  7.10235064E-01 -2.69931760E-20 -2.38772330E-19 -3.18363107E-19
  6.29936196E-01  0.00000000E+00  0.00000000E+00  2.24425861E-19  3.23540475E-01
 -3.67067515E-21  0.00000000E+00  0.00000000E+00  3.33333333E-01  1.00000000E+00
  7.91027073E-02  7.10235064E-01 -2.69931760E-20 -7.95907768E-20 -9.55089322E-19
  6.29936196E-01  0.00000000E+00  0.00000000E+00  6.73277583E-19  3.23540475E-01
 -3.67067515E-21  0.00000000E+00  0.00000000E+00  3.33333333E-01  3.33333333E-01
  1.00000000E+00  2.45358596E-39  1.04597508E-38 -1.37855269E-19 -4.67535523E-20
 -4.35666064E-57  0.00000000E+00  0.00000000E+00  0.00000000E+00  0.00000000E+00
  0.00000000E+00  0.00000000E+00 -6.35779586E-21  0.00000000E+00  0.00000000E+00
  0.00000000E+00  0.00000000E+00  1.00000000E+00  9.81434384E-39  4.18390033E-38
 -5.51421077E-19 -4.35666064E-57 -4.67535523E-20  0.00000000E+00  3.88716994E-19
  0.00000000E+00  0.00000000E+00  0.00000000E+00  0.00000000E+00  0.00000000E+00
 -6.35779586E-21  0.00000000E+00  0.00000000E+00  0.00000000E+00  0.00000000E+00
  1.00000000E+00  3.92573754E-38  1.67356013E-37 -4.35666064E-57 -5.51421077E-19
 -1.37855269E-19  0.00000000E+00  0.00000000E+00  3.88716994E-19  0.00000000E+00
  0.00000000E+00  0.00000000E+00  0.00000000E+00  0.00000000E+00  0.00000000E+00
  0.00000000E+00  0.00000000E+00  0.00000000E+00  0.00000000E+00  1.00000000E+00
  3.49155574E-02  2.83051457E-01 -3.07151850E-05 -3.04532887E-01 -2.25096741E-01
  3.82929401E-01 -4.18533928E-05 -4.14965254E-01 -3.06723281E-01  2.60098915E-01
 -1.68775936E-05 -1.67336850E-01 -1.23687724E-01  1.22575232E-01  3.45647449E-01
  2.44450475E-01  3.89695195E-05  2.88044812E-05  2.85588767E-01  1.00000000E+00
  9.38512608E-02  4.82799772E-01 -2.15741213E-05 -2.13901672E-01 -1.58106304E-01
  7.11172452E-01 -4.70585136E-05 -4.66572642E-01 -3.44869095E-01  6.43704491E-01
 -3.49217359E-05 -3.46239720E-01 -2.55924518E-01  3.56696875E-01  4.08239232E-01
  3.84856981E-01  9.00417329E-06  6.65547186E-06  6.59872328E-02  6.58292049E-01
  1.00000000E+00  3.49508766E-02  2.83201008E-01  3.02505665E-05 -4.26998937E-02
  3.76427331E-01  3.83022625E-01  4.12053484E-05 -5.81630098E-02  5.12744756E-01
  2.60118068E-01  1.66134321E-05 -2.34505289E-02  2.06731663E-01  1.22654819E-01
  1.27038304E-01  4.63320485E-01 -5.37881990E-06  4.74177954E-05 -6.69321290E-02
  1.29905956E-02  1.29670726E-01  1.00000000E+00  9.38773906E-02  4.82905092E-01
  2.12397185E-05 -2.99807185E-02  2.64299531E-01  7.11277265E-01  4.63253870E-05
 -6.53901507E-02  5.76456702E-01  6.43744120E-01  3.43747389E-05 -4.85213292E-02
  4.27747071E-01  3.56782451E-01  3.57794791E-01  4.35457188E-01 -1.24220691E-06
  1.09508617E-05 -1.54575826E-02  1.29670726E-01  3.68381546E-01  6.58292049E-01
  1.00000000E+00  6.93729746E-26  2.95570234E-06  1.23610621E-05  5.26262749E-09
  1.70926378E-08  1.45248827E-03  5.24908234E-03  2.23475659E-06  7.25832962E-06
  6.00200724E-03  1.10880145E-02  4.72063724E-06  1.53322922E-05  9.57403586E-07
  7.04282441E-10  7.05938321E-10  7.05477238E-10  2.29133962E-09  9.75520292E-13
  2.83587158E-08  8.32783539E-04  2.92535046E-08  8.39415400E-04  1.00000000E+00
  1.37159767E-12  9.24373082E-05  3.23530652E-04  1.37740696E-07  4.47371933E-07
  1.27295180E-02  4.36397745E-02  1.85792997E-05  6.03442369E-05  4.77097427E-02
  8.69226715E-02  3.70066615E-05  1.20194990E-04  8.89686258E-05  1.26168021E-06
  1.26183201E-06  6.46757591E-08  2.10062241E-07  8.94323899E-11  2.52153316E-06
  7.46214265E-03  2.58535241E-06  7.51862151E-03  2.67196851E-01  1.00000000E+00
 -5.75416590E-12 -1.34930704E-04 -4.48268396E-04 -2.02317969E-07 -6.57114295E-07
 -6.88209192E-03 -1.98896234E-02 -1.00822171E-05 -3.27463202E-05 -7.01065143E-03
 -5.20370758E-03 -5.44302549E-06 -1.76785576E-05 -1.57627831E-04 -2.39620217E-06
 -2.39649581E-06 -1.19785957E-07 -3.89056222E-07 -1.72989934E-10 -4.10268167E-06
 -3.85970726E-03 -4.20659339E-06 -3.88873484E-03  5.40838273E-17 -1.98592167E-15
  1.00000000E+00 -2.44979205E-15 -5.74457134E-08 -2.02317969E-07  2.69437531E-05
 -2.79761377E-10 -2.92999791E-06 -1.00822171E-05  3.79187209E-03 -1.39414950E-08
 -2.98473114E-06 -5.44302549E-06  7.58107797E-03 -7.52651047E-09 -7.32483702E-08
  5.11936384E-09 -1.02028973E-09  1.24886922E-05 -1.72989934E-10  1.72691222E-08
 -1.51889744E-06 -1.42894330E-03 -2.19789076E-07 -2.03181377E-04  4.96880782E-20
 -4.42654438E-19  8.42994577E-34  1.00000000E+00 -7.95674941E-15 -1.86579569E-07
 -6.57114295E-07 -2.79761377E-10  2.69429306E-05 -9.51642371E-06 -3.27463202E-05
 -1.39414950E-08  3.79183110E-03 -9.69419331E-06 -1.76785576E-05 -7.52651047E-09
  7.58105584E-03 -2.37905469E-07 -3.31342206E-09  1.66269216E-08 -1.72989934E-10
  1.24881836E-05  5.31674849E-09 -1.12708119E-06 -1.06033171E-03  1.91597788E-06
  1.77120279E-03  9.62712144E-20 -1.09689026E-18  1.09598643E-33  5.68996124E-37
  1.00000000E+00  2.01290838E-04  1.15405309E-02  2.22735047E-02  9.48277398E-06
  3.07993718E-05  8.55939375E-02  2.20079556E-01  9.36971852E-05  3.04321758E-04
  2.12667751E-01  3.55080654E-01  1.51172868E-04  4.90998667E-04  2.28525287E-02
  3.42735922E-03  3.42739284E-03  1.43242656E-05  4.65241905E-05  1.98073177E-08
  2.08006891E-03  5.61580040E-02  2.10645333E-03  5.64802407E-02  1.11792091E-02
  3.35814146E-01 -2.25144443E-15 -6.03274479E-19 -8.79262002E-19  1.00000000E+00
 -7.32970980E-04 -2.66905519E-02 -4.75825323E-02 -2.26367459E-05 -7.35225321E-05
 -1.12021462E-01 -2.35314920E-01 -1.26460887E-04 -4.10735920E-04 -9.41382156E-02
 -5.70784037E-02 -6.76403557E-05 -2.19691039E-04 -5.19986830E-02 -9.08030742E-03
 -9.08039841E-03 -3.52064045E-05 -1.14347884E-04 -5.36027680E-08 -5.11579025E-03
 -7.03793239E-02 -5.18079619E-03 -7.07890303E-02  5.16414460E-17 -4.64126332E-16
  3.25434154E-01  1.84151800E-34  4.20175854E-34  1.35582222E-16  1.00000000E+00
 -3.12056780E-07 -1.13632980E-05 -2.26367459E-05  5.58751853E-03 -3.13016548E-08
 -4.76922792E-05 -1.26460887E-04  6.17212280E-02 -1.74867671E-07 -4.00786241E-05
 -6.76403557E-05  1.01797839E-01 -9.35317767E-08 -2.62465478E-05  2.42635552E-07
 -3.86591006E-06  8.35731843E-03 -5.36027680E-08  1.15563384E-05 -1.89397115E-03
 -2.60558785E-02 -2.70689915E-04 -3.69863548E-03  3.66294874E-21 -1.22883197E-19
  1.84151800E-34  3.25434154E-01  9.17995551E-38 -3.61213407E-19 -9.74677985E-36
  1.00000000E+00 -1.01353811E-06 -3.69071793E-05 -7.35225321E-05 -3.13016548E-08
  5.58742650E-03 -1.54901113E-04 -4.10735920E-04 -1.74867671E-07  6.17207139E-02
 -1.30172505E-04 -2.19691039E-04 -9.35317767E-08  1.01797564E-01 -8.52469105E-05
 -1.25560736E-05  7.87937109E-07 -5.36027680E-08  8.35716084E-03  3.55799720E-06
 -1.40540052E-03 -1.93344789E-02  2.35969821E-03  3.22422929E-02  7.35565263E-21
  1.05623914E-20  4.20175854E-34  9.17995551E-38  3.25434154E-01 -4.37713704E-19
  0.00000000E+00  8.76589467E-38  1.00000000E+00  1.10094216E-02  8.64745255E-02
  8.87460768E-02  3.77829623E-05  1.22716360E-04  2.19923675E-01  3.65748578E-01
  1.55714655E-04  5.05750066E-04  4.05833686E-01  5.74274803E-01  2.44493098E-04
  7.94096099E-04  1.03087133E-01  5.59335228E-02  5.59336044E-02  3.47714254E-05
  1.12935103E-04  4.80812551E-08  3.75935209E-02  1.66119037E-01  3.78133685E-02
  1.66741289E-01  3.40560234E-02  2.55649358E-01  9.87584601E-19 -1.74874871E-20
  0.00000000E+00  8.25875607E-01  0.00000000E+00 -2.47155185E-19 -5.70705901E-21
  1.00000000E+00 -3.56111815E-02 -2.26001024E-01 -1.85101619E-01 -1.01444700E-04
 -3.29485133E-04 -3.97751823E-01 -4.42337104E-01 -2.81624013E-04 -9.14694658E-04
 -3.18207399E-01 -1.06180587E-01 -1.91702944E-04 -6.22637456E-04 -2.35508800E-01
 -1.58443791E-01 -1.58444022E-01 -7.76629500E-05 -2.52243708E-04 -1.36200546E-07
 -1.03847376E-01 -2.94236488E-01 -1.04448045E-01 -2.95316786E-01 -1.68963915E-18
 -9.68660064E-21  7.13886845E-02  0.00000000E+00  0.00000000E+00  0.00000000E+00
  6.24326097E-01  0.00000000E+00  0.00000000E+00  0.00000000E+00  1.00000000E+00
 -1.51611877E-05 -9.62182048E-05 -1.01444700E-04  5.31755565E-02 -1.40275771E-07
 -1.69339792E-04 -2.81624013E-04  2.19152103E-01 -3.89424243E-07 -1.35474362E-04
 -1.91702944E-04  3.44098589E-01 -2.65083127E-07 -1.24323822E-04 -4.33984753E-05
 -6.74563287E-05  4.89371320E-02 -1.36200546E-07  6.76693205E-05 -3.84464420E-02
 -1.08932421E-01 -5.45727558E-03 -1.54299210E-02 -3.12320651E-21  8.88072797E-22
  0.00000000E+00  7.13886845E-02  0.00000000E+00 -1.56546333E-19  0.00000000E+00
  6.24326097E-01 -9.34822530E-40  0.00000000E+00  0.00000000E+00  1.00000000E+00
 -4.92424536E-05 -3.12509849E-04 -3.29485133E-04 -1.40275771E-07  5.31751441E-02
 -5.50003535E-04 -9.14694658E-04 -3.89424243E-07  2.19150958E-01 -4.40011041E-04
 -6.22637456E-04 -2.65083127E-07  3.44097810E-01 -4.03794886E-04 -2.19093012E-04
 -1.40955464E-04 -1.36200546E-07  4.89367316E-02  2.08344386E-05 -2.85287607E-02
 -8.08321089E-02  4.75729708E-02  1.34507992E-01 -3.87331112E-21  0.00000000E+00
  0.00000000E+00  0.00000000E+00  7.13886845E-02 -2.12670015E-20  0.00000000E+00
 -9.34822530E-40  6.24326097E-01  0.00000000E+00  0.00000000E+00  0.00000000E+00
  1.00000000E+00  2.94905804E-02  1.80602721E-01  7.42795107E-02  3.16239326E-05
  1.02712272E-04  3.64530759E-01  2.94502545E-01  1.25382203E-04  4.07232428E-04
  6.37454426E-01  6.18292411E-01  2.63233257E-04  8.54962797E-04  1.56340602E-01
  1.41179625E-01  1.41179651E-01  1.11798177E-05  3.63112484E-05  1.54592358E-08
  1.12880548E-01  3.20618767E-01  1.13132542E-01  3.21207897E-01  1.51720824E-02
  1.18939117E-01  0.00000000E+00  2.51557502E-20 -2.95475200E-20  4.87859821E-01
  4.06031028E-16 -9.91286690E-20  0.00000000E+00  8.10628338E-01  0.00000000E+00
  0.00000000E+00  0.00000000E+00  1.00000000E+00 -5.66677557E-02 -3.20525177E-01
 -5.67862962E-02 -5.67414060E-05 -1.84292029E-04 -5.50416651E-01 -1.41411735E-01
 -1.89318597E-04 -6.14893267E-04 -5.88785906E-01  6.56062002E-02 -2.43135863E-04
 -7.89687896E-04 -2.55131511E-01 -2.58586786E-01 -2.58586834E-01 -8.96459289E-06
 -2.91163567E-05 -2.83153756E-08 -2.04937830E-01 -4.79212608E-01 -2.05380258E-01
 -4.80057620E-01 -1.65965440E-18  0.00000000E+00  1.98368281E-02  0.00000000E+00
  0.00000000E+00  1.96250014E-16  2.45534554E-01 -3.86992950E-35  0.00000000E+00
  0.00000000E+00  7.04751978E-01  0.00000000E+00  0.00000000E+00  0.00000000E+00
  1.00000000E+00 -2.41258629E-05 -1.36461139E-04 -5.67414060E-05  7.64900788E-02
 -7.84609196E-08 -2.34335672E-04 -1.89318597E-04  3.03266996E-01 -2.61786098E-07
 -2.50671089E-04 -2.43135863E-04  6.36692973E-01 -3.36203572E-07 -1.21913816E-04
 -9.67978137E-05 -1.10091364E-04  2.70410749E-02 -2.83153756E-08  3.73918758E-05
 -7.58722149E-02 -1.77414399E-01 -1.07308534E-02 -2.50823911E-02 -8.11777006E-22
  6.86629654E-21  0.00000000E+00  1.98368281E-02  0.00000000E+00 -4.79126010E-20
 -3.86992950E-35  2.45534554E-01  0.00000000E+00  0.00000000E+00  0.00000000E+00
  7.04751978E-01  0.00000000E+00  0.00000000E+00  0.00000000E+00  1.00000000E+00
 -7.83590774E-05 -4.43216020E-04 -1.84292029E-04 -7.84609196E-08  7.64898482E-02
 -7.61105508E-04 -6.14893267E-04 -2.61786098E-07  3.03266226E-01 -8.14161772E-04
 -7.89687896E-04 -3.36203572E-07  6.36691984E-01 -3.95967356E-04 -3.57568810E-04
 -3.14392444E-04 -2.83153756E-08  2.70409916E-02  1.15124950E-05 -5.63001451E-02
 -1.31648410E-01  9.35445845E-02  2.18651934E-01  2.24893950E-23 -7.60131020E-22
  0.00000000E+00  0.00000000E+00  1.98368281E-02  0.00000000E+00  0.00000000E+00
  0.00000000E+00  2.45534554E-01  0.00000000E+00  0.00000000E+00  0.00000000E+00
  7.04751978E-01  0.00000000E+00  0.00000000E+00  0.00000000E+00  1.00000000E+00
  4.84958469E-05  1.57182100E-02  3.35859541E-02  1.67322479E-05  5.43451446E-05
  9.64423406E-02  2.27604810E-01  1.21672272E-04  3.95182840E-04  1.64232634E-01
  2.56360274E-01  1.22183832E-04  3.96844350E-04  3.49636586E-02  2.97391166E-03
  2.97398460E-03  2.72050501E-05  8.83600573E-05  4.29723386E-08  1.77771279E-03
  5.78553787E-02  1.80808739E-03  5.82313751E-02  2.54826105E-03  1.53282616E-01
  0.00000000E+00 -3.94975716E-20  6.76678268E-20  7.26013263E-01 -1.78666333E-15
 -6.63848676E-20  3.39035913E-21  6.08667132E-01  0.00000000E+00  0.00000000E+00
  0.00000000E+00  3.57204234E-01  0.00000000E+00  0.00000000E+00  6.80911114E-20
  1.00000000E+00  4.25603539E-07  1.58767214E-03  3.91638211E-03 -7.65915511E-07
  5.41549750E-06  4.36418917E-02  1.29324438E-01  3.02876213E-05  1.78827334E-04
  1.50070079E-01  2.62241581E-01  9.86069346E-05  3.62622591E-04  2.63482137E-03
  5.21021256E-04  1.73679282E-04 -2.05683882E-06  5.89456073E-06 -2.84415697E-09
  3.66098813E-04  3.15391306E-02  1.48870483E-04  2.76229675E-02  2.54826105E-03
  1.53282616E-01  0.00000000E+00 -1.18492715E-19  6.76678268E-20  7.26013263E-01
 -5.95554444E-16 -1.99154603E-19  3.39035913E-21  6.08667132E-01  0.00000000E+00
  0.00000000E+00  0.00000000E+00  3.57204234E-01  0.00000000E+00  0.00000000E+00
  6.80911114E-20  3.33333333E-01  1.00000000E+00  4.25686740E-07  1.58769659E-03
  3.91644336E-03  1.66739576E-06 -2.48755412E-06  4.36419831E-02  1.29324709E-01
  5.50590042E-05  9.83724027E-05  1.50070104E-01  2.62241624E-01  1.11647362E-04
  3.20268332E-04  2.63489490E-03  1.73679869E-04  5.21012188E-04  1.81491841E-06
 -6.68030092E-06 -2.84408694E-09  2.65342989E-04  2.96607734E-02  4.89480460E-04
  3.39063708E-02  2.54826105E-03  1.53282616E-01  0.00000000E+00 -3.94975716E-20
  2.03003480E-19  7.26013263E-01 -5.95554444E-16 -6.63848676E-20  1.01710774E-20
  6.08667132E-01  0.00000000E+00  0.00000000E+00  0.00000000E+00  3.57204234E-01
  0.00000000E+00  0.00000000E+00  2.04273334E-19  3.33333333E-01  3.33333333E-01
  1.00000000E+00  3.54473578E-08  1.04199645E-05  2.39858524E-05 -4.94966525E-03
  3.60810886E-08  3.89354468E-05  9.39252379E-05 -5.03885195E-02  1.59542171E-07
  1.04435738E-05  6.95640997E-06 -2.65261911E-02  2.52353822E-08  2.74550978E-05
 -1.80679110E-06  2.06496613E-06 -7.35460437E-03  6.54471355E-08 -1.08902623E-05
  1.04895843E-03  1.95553819E-02  1.50565883E-04  2.77756445E-03  2.40825926E-35
  0.00000000E+00 -6.84118008E-20  0.00000000E+00  0.00000000E+00  0.00000000E+00
 -1.14981964E-19 -1.03153056E-15  0.00000000E+00  0.00000000E+00  0.00000000E+00
  0.00000000E+00  0.00000000E+00  0.00000000E+00  0.00000000E+00  0.00000000E+00
  0.00000000E+00  0.00000000E+00  0.00000000E+00  0.00000000E+00  1.00000000E+00
  1.15130484E-07  3.38432998E-05  7.79043334E-05  3.60810886E-08 -4.94955917E-03
  1.26459547E-04  3.05062457E-04  1.59542171E-07 -5.03880505E-02  3.39199811E-05
  2.25939222E-05  2.52353822E-08 -2.65261169E-02  8.91721944E-05  6.70669784E-06
 -5.86816381E-06  6.54471355E-08 -7.35441196E-03 -3.35289935E-06  7.78368104E-04
  1.45108567E-02 -1.31253521E-03 -2.42129962E-02  0.00000000E+00  0.00000000E+00
  1.17204114E-19  0.00000000E+00  0.00000000E+00  0.00000000E+00  5.87227426E-21
  0.00000000E+00 -1.03153056E-15  0.00000000E+00  0.00000000E+00  0.00000000E+00
  0.00000000E+00  0.00000000E+00  1.17937265E-19  0.00000000E+00  0.00000000E+00
  0.00000000E+00  0.00000000E+00  0.00000000E+00  0.00000000E+00  1.00000000E+00
  4.90159214E-11  1.44085256E-08  3.60810886E-08 -6.84430145E-06 -2.10723690E-06
  5.38391834E-08  1.59542171E-07 -6.96762710E-05 -2.14523265E-05  1.44411721E-08
  2.52353822E-08 -3.66799045E-05 -1.12932911E-05  4.33180997E-08 -2.49839582E-09
 -2.49832579E-09 -1.08902623E-05 -3.35289935E-06  5.21005720E-04  2.88167939E-04
  5.37221869E-03 -6.85782708E-05 -1.26509780E-03  0.00000000E+00 -5.49985812E-40
  0.00000000E+00  1.17204114E-19 -6.84118008E-20  0.00000000E+00  0.00000000E+00
  5.87227426E-21 -1.14981964E-19  0.00000000E+00  0.00000000E+00  0.00000000E+00
  0.00000000E+00  0.00000000E+00  0.00000000E+00  1.17937265E-19  0.00000000E+00
  0.00000000E+00  0.00000000E+00  0.00000000E+00  0.00000000E+00  0.00000000E+00
  1.00000000E+00  3.49351077E-02  2.83134247E-01  5.48884564E-07  3.47101017E-01
 -1.51630159E-01  3.82981013E-01  7.47775749E-07  4.72874881E-01 -2.06574138E-01
  2.60109519E-01  3.01515897E-07  1.90671193E-01 -8.32942050E-02  1.22619288E-01
  4.12334987E-01  1.77907359E-01  7.93519838E-07 -3.46647037E-07 -2.19211009E-01
  1.30207958E-02  1.29791478E-01  1.29592614E-02  1.29545259E-01  2.87257496E-08
  2.54775769E-06 -4.14535015E-06  1.74491949E-06 -7.68766537E-07  2.09095046E-03
 -5.14256193E-03  2.16468000E-03 -9.53702194E-04  3.76843723E-02 -1.04094842E-01
  4.38170752E-02 -1.93046736E-02  1.12984794E-01 -2.05119357E-01  8.63417444E-02
 -3.80399464E-02  1.79019994E-03  4.34771771E-04  1.99548076E-04 -1.20101770E-03
  5.29137430E-04 -2.22732021E-04  1.00000000E+00  9.38657270E-02  4.82858081E-01
  3.85451546E-07  2.43750020E-01 -1.06481550E-01  7.11230481E-01  8.40728210E-07
  5.31655718E-01 -2.32252390E-01  6.43726431E-01  6.23867849E-07  3.94518591E-01
 -1.72344401E-01  3.56744252E-01  4.23666963E-01  3.69515488E-01  1.83298659E-07
 -8.00735332E-08 -5.06365211E-02  1.29791478E-01  3.68592862E-01  1.29545259E-01
  3.68161899E-01  8.35522455E-04  7.48547072E-03 -3.87166863E-03  1.62971759E-03
 -7.18011550E-04  5.62911726E-02 -7.05481176E-02  2.96961128E-02 -1.30833416E-02
  1.66376340E-01 -2.94681044E-01  1.24041318E-01 -5.46494066E-02  3.20862510E-01
 -4.79558711E-01  2.01862644E-01 -8.89354763E-02  5.80102810E-02  3.28513270E-02
  2.84851922E-02 -2.22928442E-02  9.82165235E-03 -4.13426900E-03  6.58292049E-01
  1.00000000E+00  6.93607752E-26  2.95560369E-06 -1.23606658E-05  6.22304298E-09
  1.91349577E-08  1.45247309E-03 -5.24903437E-03  2.64265430E-06  8.12578001E-06
  6.00199090E-03 -1.10879989E-02  5.58231209E-06  1.71648028E-05  9.57359477E-07
  7.04317392E-10  7.06367503E-10 -8.34213269E-10 -2.56508523E-09  1.29140581E-12
  2.83580807E-08  8.32778777E-04  2.92509593E-08  8.39396751E-04  0.00000000E+00
  1.58217722E-71 -2.08462369E-70  8.10018016E-75  1.72266638E-74  6.43733944E-16
 -5.11215146E-15  1.98641837E-19  4.22451854E-19  5.14942087E-07 -3.42463570E-06
  1.33070377E-10  2.83000946E-10  3.50673826E-04 -1.36042801E-03  5.28618762E-08
  1.12421422E-07  1.93021257E-24  4.12159252E-28  4.12169516E-28 -1.29879328E-28
 -2.76214537E-28  1.07328125E-32  2.87253243E-08  8.35519296E-04  1.00000000E+00
  1.37148614E-12  9.24347261E-05 -3.23522016E-04  1.62878882E-07  5.00829019E-07
  1.27293918E-02 -4.36393990E-02  2.19704878E-05  6.75560744E-05  4.77096146E-02
 -8.69225524E-02  4.37616218E-05  1.34560662E-04  8.89655250E-05  1.26163994E-06
  1.26182789E-06 -7.64787018E-08 -2.35160954E-07  1.18393034E-10  2.52148772E-06
  7.46210208E-03  2.58517141E-06  7.51846272E-03  1.58217722E-71  3.86384252E-39
 -2.76128372E-38  1.07294644E-42  2.28183660E-42  3.26616271E-13 -2.21732229E-12
  8.61580441E-17  1.83232425E-16  6.32576556E-06 -4.01425373E-05  1.55981046E-09
  3.31725096E-09  2.91123767E-03 -1.11214711E-02  4.32144756E-07  9.19042819E-07
  2.68809852E-18  1.02936805E-20  1.02936947E-20 -1.80221483E-22 -3.83277265E-22
  1.48929272E-26  2.54772734E-06  7.48544381E-03  2.67196851E-01  1.00000000E+00
  5.75370556E-12  1.34927088E-04 -4.48257000E-04  2.39242011E-07  7.35634605E-07
  6.88203247E-03 -1.98894876E-02  1.19224898E-05  3.66599328E-05  7.01064181E-03
 -5.20372723E-03  6.43656915E-06  1.97915198E-05  1.57622550E-04  2.39612897E-06
  2.39649253E-06 -1.41646358E-07 -4.35542077E-07  2.29009044E-10  4.10230683E-06
  3.85940337E-03  4.20661221E-06  3.88894307E-03  2.08462369E-70  2.76128372E-38
 -1.96199164E-37  7.66778026E-42  1.63070783E-41  7.43621594E-13 -4.95934878E-12
  1.96240987E-16  4.17345964E-16  5.71721772E-06 -3.46541643E-05  1.41310548E-09
  3.00525327E-09  9.39414110E-04 -3.10867062E-03  1.39587453E-07  2.96860821E-07
  9.46326412E-18  3.70803263E-20  3.70803776E-20 -6.41809118E-22 -1.36493629E-21
  5.36492754E-26  4.14531156E-06  3.87166492E-03 -4.29173811E-16  3.55163410E-16
  1.00000000E+00 -2.89673370E-15 -6.79297610E-08  2.39242011E-07  2.69429615E-05
 -3.70359158E-10 -3.46479589E-06  1.19224898E-05  3.79183263E-03 -1.84566383E-08
 -3.52954494E-06  6.43656915E-06  7.58105667E-03 -9.96414603E-09 -8.66158582E-08
  6.05360236E-09 -1.20652692E-09 -1.24882191E-05  2.29009044E-10  1.93324169E-08
 -1.51918879E-06 -1.42923544E-03 -2.20100531E-07 -2.03479283E-04 -8.10018016E-75
 -1.07294644E-42  7.66778026E-42  1.13516706E-39 -6.33640849E-46 -2.88947541E-17
  1.96240987E-16  9.10155501E-14 -1.62167278E-20 -2.22152774E-10  1.41310548E-09
  1.71284344E-06 -1.16774519E-13 -3.65026243E-08  1.39587453E-07  4.83685429E-04
 -1.15350609E-11 -3.76266836E-22  7.11387142E-24 -1.44082474E-24 -1.90663716E-19
  5.36492754E-26  1.57558400E-23  1.74457648E-06  1.62941083E-03 -7.61475935E-20
 -3.53062782E-19 -1.41020035E-33  1.00000000E+00 -8.90703744E-15 -2.08874197E-07
  7.35634605E-07 -3.70359158E-10  2.69419431E-05 -1.06537466E-05  3.66599328E-05
 -1.84566383E-08  3.79178188E-03 -1.08528406E-05  1.97915198E-05 -9.96414603E-09
  7.58102928E-03 -2.66331245E-07 -3.70933310E-09  1.86133895E-08  2.29009044E-10
 -1.24875894E-05  6.28694336E-09 -1.12773883E-06 -1.06096380E-03  1.91514804E-06
  1.77052253E-03 -1.72266638E-74 -2.28183660E-42  1.63070783E-41 -6.33640849E-46
  1.13516601E-39 -6.14505114E-17  4.17345964E-16 -1.62167278E-20  9.10155233E-14
 -4.72452596E-10  3.00525327E-09 -1.16774519E-13  1.71284325E-06 -7.76301790E-08
  2.96860821E-07 -1.15350609E-11  4.83685410E-04 -8.00207175E-22 -3.06419963E-24
  1.51290755E-23  5.36492754E-26 -1.90663627E-19  7.40857804E-24 -7.69442455E-07
 -7.18648843E-04  8.61004673E-20 -7.92646188E-19 -1.57587580E-33  9.31520397E-37