Jobname.Temp
SP        R                             6-31+G(d)           
Number of atoms                            I               14
Charge                                     I                0
Multiplicity                               I                1
Number of electrons                        I               40
Number of alpha electrons                  I               20
Number of beta electrons                   I               20
Atomic numbers                             I   N=          14
           6           6           6           7           6           1
           1           1           1           1           1           1
           1           1
Current cartesian coordinates              R   N=          42
 -1.46460739E+00 -3.48292697E-02  1.96913317E+00  1.46460656E+00 -3.48293459E-02
  1.96913363E+00  2.17973743E+00  3.10510261E-01 -8.47777344E-01  2.27655306E-07
 -5.13000290E-01 -2.33988401E+00 -2.17973737E+00  3.10510423E-01 -8.47778009E-01
 -2.19966877E+00 -1.83026182E+00  2.69151520E+00 -2.25274788E+00  1.46764839E+00
  3.15272748E+00  2.19966762E+00 -1.83026192E+00  2.69151592E+00  2.25274676E+00
  1.46764829E+00  3.15272816E+00  2.51531384E+00  2.31491566E+00 -1.25949344E+00
  3.87653454E+00 -7.31324852E-01 -1.40271580E+00  1.73278437E-07 -2.43285337E+00
 -2.44979748E+00 -2.51531349E+00  2.31491586E+00 -1.25949419E+00 -3.87653439E+00
 -7.31324549E-01 -1.40271700E+00
Nuclear charges                            R   N=          14
  6.00000000E+00  6.00000000E+00  6.00000000E+00  7.00000000E+00  6.00000000E+00
  1.00000000E+00  1.00000000E+00  1.00000000E+00  1.00000000E+00  1.00000000E+00
  1.00000000E+00  1.00000000E+00  1.00000000E+00  1.00000000E+00
Number of basis functions                  I              113
Number of contracted shells                I               43
Number of primitive shells                 I               96
Highest angular momentum                   I                2
Largest degree of contraction              I                6
Shell types                                I   N=          43
           0          -1          -1          -1           2           0
          -1          -1          -1           2           0          -1
          -1          -1           2           0          -1          -1
          -1           2           0          -1          -1          -1
           2           0           0           0           0           0
           0           0           0           0           0           0
           0           0           0           0           0           0
           0
Number of primitives per shell             I   N=          43
           6           3           1           1           1           6
           3           1           1           1           6           3
           1           1           1           6           3           1
           1           1           6           3           1           1
           1           3           1           3           1           3
           1           3           1           3           1           3
           1           3           1           3           1           3
           1
Shell to atom map                          I   N=          43
           1           1           1           1           1           2
           2           2           2           2           3           3
           3           3           3           4           4           4
           4           4           5           5           5           5
           5           6           6           7           7           8
           8           9           9          10          10          11
          11          12          12          13          13          14
          14
Primitive exponents                        R   N=          96
  3.04752490E+03  4.57369510E+02  1.03948690E+02  2.92101550E+01  9.28666300E+00
  3.16392700E+00  7.86827240E+00  1.88128850E+00  5.44249300E-01  1.68714400E-01
  4.38000000E-02  8.00000000E-01  3.04752490E+03  4.57369510E+02  1.03948690E+02
  2.92101550E+01  9.28666300E+00  3.16392700E+00  7.86827240E+00  1.88128850E+00
  5.44249300E-01  1.68714400E-01  4.38000000E-02  8.00000000E-01  3.04752490E+03
  4.57369510E+02  1.03948690E+02  2.92101550E+01  9.28666300E+00  3.16392700E+00
  7.86827240E+00  1.88128850E+00  5.44249300E-01  1.68714400E-01  4.38000000E-02
  8.00000000E-01  4.17351100E+03  6.27457900E+02  1.42902100E+02  4.02343300E+01
  1.28202100E+01  4.39043700E+00  1.16263580E+01  2.71628000E+00  7.72218000E-01
  2.12031300E-01  6.39000000E-02  8.00000000E-01  3.04752490E+03  4.57369510E+02
  1.03948690E+02  2.92101550E+01  9.28666300E+00  3.16392700E+00  7.86827240E+00
  1.88128850E+00  5.44249300E-01  1.68714400E-01  4.38000000E-02  8.00000000E-01
  1.87311370E+01  2.82539370E+00  6.40121700E-01  1.61277800E-01  1.87311370E+01
  2.82539370E+00  6.40121700E-01  1.61277800E-01  1.87311370E+01  2.82539370E+00
  6.40121700E-01  1.61277800E-01  1.87311370E+01  2.82539370E+00  6.40121700E-01
  1.61277800E-01  1.87311370E+01  2.82539370E+00  6.40121700E-01  1.61277800E-01
  1.87311370E+01  2.82539370E+00  6.40121700E-01  1.61277800E-01  1.87311370E+01
  2.82539370E+00  6.40121700E-01  1.61277800E-01  1.87311370E+01  2.82539370E+00
  6.40121700E-01  1.61277800E-01  1.87311370E+01  2.82539370E+00  6.40121700E-01
  1.61277800E-01
Contraction coefficients                   R   N=          96
  1.83470016E-03  1.40373012E-02  6.88426061E-02  2.32184421E-01  4.67941342E-01
  3.62312032E-01 -1.19332409E-01 -1.60854212E-01  1.14345648E+00  1.00000000E+00
  1.00000000E+00  1.00000000E+00  1.83470016E-03  1.40373012E-02  6.88426061E-02
  2.32184421E-01  4.67941342E-01  3.62312032E-01 -1.19332409E-01 -1.60854212E-01
  1.14345648E+00  1.00000000E+00  1.00000000E+00  1.00000000E+00  1.83470016E-03
  1.40373012E-02  6.88426061E-02  2.32184421E-01  4.67941342E-01  3.62312032E-01
 -1.19332409E-01 -1.60854212E-01  1.14345648E+00  1.00000000E+00  1.00000000E+00
  1.00000000E+00  1.83479944E-03  1.39949958E-02  6.85869792E-02  2.32240930E-01
  4.69069858E-01  3.60454891E-01 -1.14961023E-01 -1.69118034E-01  1.14585223E+00
  1.00000000E+00  1.00000000E+00  1.00000000E+00  1.83470016E-03  1.40373012E-02
  6.88426061E-02  2.32184421E-01  4.67941342E-01  3.62312032E-01 -1.19332409E-01
 -1.60854212E-01  1.14345648E+00  1.00000000E+00  1.00000000E+00  1.00000000E+00
  3.34945995E-02  2.34726947E-01  8.13757318E-01  1.00000000E+00  3.34945995E-02
  2.34726947E-01  8.13757318E-01  1.00000000E+00  3.34945995E-02  2.34726947E-01
  8.13757318E-01  1.00000000E+00  3.34945995E-02  2.34726947E-01  8.13757318E-01
  1.00000000E+00  3.34945995E-02  2.34726947E-01  8.13757318E-01  1.00000000E+00
  3.34945995E-02  2.34726947E-01  8.13757318E-01  1.00000000E+00  3.34945995E-02
  2.34726947E-01  8.13757318E-01  1.00000000E+00  3.34945995E-02  2.34726947E-01
  8.13757318E-01  1.00000000E+00  3.34945995E-02  2.34726947E-01  8.13757318E-01
  1.00000000E+00
P(S=P) Contraction coefficients            R   N=          96
  0.00000000E+00  0.00000000E+00  0.00000000E+00  0.00000000E+00  0.00000000E+00
  0.00000000E+00  6.89990956E-02  3.16423980E-01  7.44308252E-01  1.00000000E+00
  1.00000000E+00  0.00000000E+00  0.00000000E+00  0.00000000E+00  0.00000000E+00
  0.00000000E+00  0.00000000E+00  0.00000000E+00  6.89990956E-02  3.16423980E-01
  7.44308252E-01  1.00000000E+00  1.00000000E+00  0.00000000E+00  0.00000000E+00
  0.00000000E+00  0.00000000E+00  0.00000000E+00  0.00000000E+00  0.00000000E+00
  6.89990956E-02  3.16423980E-01  7.44308252E-01  1.00000000E+00  1.00000000E+00
  0.00000000E+00  0.00000000E+00  0.00000000E+00  0.00000000E+00  0.00000000E+00
  0.00000000E+00  0.00000000E+00  6.75800232E-02  3.23907111E-01  7.40895255E-01
  1.00000000E+00  1.00000000E+00  0.00000000E+00  0.00000000E+00  0.00000000E+00
  0.00000000E+00  0.00000000E+00  0.00000000E+00  0.00000000E+00  6.89990956E-02
  3.16423980E-01  7.44308252E-01  1.00000000E+00  1.00000000E+00  0.00000000E+00
  0.00000000E+00  0.00000000E+00  0.00000000E+00  0.00000000E+00  0.00000000E+00
  0.00000000E+00  0.00000000E+00  0.00000000E+00  0.00000000E+00  0.00000000E+00
  0.00000000E+00  0.00000000E+00  0.00000000E+00  0.00000000E+00  0.00000000E+00
  0.00000000E+00  0.00000000E+00  0.00000000E+00  0.00000000E+00  0.00000000E+00
  0.00000000E+00  0.00000000E+00  0.00000000E+00  0.00000000E+00  0.00000000E+00
  0.00000000E+00  0.00000000E+00  0.00000000E+00  0.00000000E+00  0.00000000E+00
  0.00000000E+00  0.00000000E+00  0.00000000E+00  0.00000000E+00  0.00000000E+00
  0.00000000E+00
Coordinates of each shell                  R   N=         129
 -1.46460739E+00 -3.48292697E-02  1.96913317E+00 -1.46460739E+00 -3.48292697E-02
  1.96913317E+00 -1.46460739E+00 -3.48292697E-02  1.96913317E+00 -1.46460739E+00
 -3.48292697E-02  1.96913317E+00 -1.46460739E+00 -3.48292697E-02  1.96913317E+00
  1.46460656E+00 -3.48293459E-02  1.96913363E+00  1.46460656E+00 -3.48293459E-02
  1.96913363E+00  1.46460656E+00 -3.48293459E-02  1.96913363E+00  1.46460656E+00
 -3.48293459E-02  1.96913363E+00  1.46460656E+00 -3.48293459E-02  1.96913363E+00
  2.17973743E+00  3.10510261E-01 -8.47777344E-01  2.17973743E+00  3.10510261E-01
 -8.47777344E-01  2.17973743E+00  3.10510261E-01 -8.47777344E-01  2.17973743E+00
  3.10510261E-01 -8.47777344E-01  2.17973743E+00  3.10510261E-01 -8.47777344E-01
  2.27655306E-07 -5.13000290E-01 -2.33988401E+00  2.27655306E-07 -5.13000290E-01
 -2.33988401E+00  2.27655306E-07 -5.13000290E-01 -2.33988401E+00  2.27655306E-07
 -5.13000290E-01 -2.33988401E+00  2.27655306E-07 -5.13000290E-01 -2.33988401E+00
 -2.17973737E+00  3.10510423E-01 -8.47778009E-01 -2.17973737E+00  3.10510423E-01
 -8.47778009E-01 -2.17973737E+00  3.10510423E-01 -8.47778009E-01 -2.17973737E+00
  3.10510423E-01 -8.47778009E-01 -2.17973737E+00  3.10510423E-01 -8.47778009E-01
 -2.19966877E+00 -1.83026182E+00  2.69151520E+00 -2.19966877E+00 -1.83026182E+00
  2.69151520E+00 -2.25274788E+00  1.46764839E+00  3.15272748E+00 -2.25274788E+00
  1.46764839E+00  3.15272748E+00  2.19966762E+00 -1.83026192E+00  2.69151592E+00
  2.19966762E+00 -1.83026192E+00  2.69151592E+00  2.25274676E+00  1.46764829E+00
  3.15272816E+00  2.25274676E+00  1.46764829E+00  3.15272816E+00  2.51531384E+00
  2.31491566E+00 -1.25949344E+00  2.51531384E+00  2.31491566E+00 -1.25949344E+00
  3.87653454E+00 -7.31324852E-01 -1.40271580E+00  3.87653454E+00 -7.31324852E-01
 -1.40271580E+00  1.73278437E-07 -2.43285337E+00 -2.44979748E+00  1.73278437E-07
 -2.43285337E+00 -2.44979748E+00 -2.51531349E+00  2.31491586E+00 -1.25949419E+00
 -2.51531349E+00  2.31491586E+00 -1.25949419E+00 -3.87653439E+00 -7.31324549E-01
 -1.40271700E+00 -3.87653439E+00 -7.31324549E-01 -1.40271700E+00
Overlap Matrix                             R   N=        6441
  1.00000000E+00  2.19058872E-01  1.00000000E+00  1.22163549E-16  1.16689191E-17
  1.00000000E+00  3.56480224E-18  4.25512541E-19  1.13492780E-33  1.00000000E+00
  1.83458634E-17  1.19269559E-16 -5.95487543E-32 -6.82896012E-34  1.00000000E+00
  1.84261053E-01  8.12273068E-01 -1.12568627E-16 -5.55975306E-18  2.56451258E-16
  1.00000000E+00  1.19143929E-17 -1.75420401E-16  5.69754058E-01  1.08936822E-33
 -2.05335322E-32  0.00000000E+00  1.00000000E+00  4.40544630E-19 -5.21268438E-18
  1.08936822E-33  5.69754058E-01 -1.16458737E-33  0.00000000E+00  0.00000000E+00
  1.00000000E+00  1.92663018E-20  1.54849576E-16 -2.05335322E-32 -1.16458737E-33
  5.69754058E-01  0.00000000E+00  0.00000000E+00  0.00000000E+00  1.00000000E+00
  6.97718343E-02  4.02090587E-01 -1.49276877E-16  1.13446190E-18  5.15736942E-17
  7.27666104E-01  0.00000000E+00  0.00000000E+00  0.00000000E+00  1.00000000E+00
 -2.19842412E-18 -8.39476702E-17  1.64678564E-01  1.05438008E-34 -2.10786247E-32
  0.00000000E+00  5.88690339E-01  0.00000000E+00  0.00000000E+00  0.00000000E+00
  1.00000000E+00 -5.43073010E-20 -9.58987386E-20  1.05438008E-34  1.64678564E-01
 -1.19708382E-34  0.00000000E+00  0.00000000E+00  5.88690339E-01  0.00000000E+00
  0.00000000E+00  0.00000000E+00  1.00000000E+00  1.03641595E-17  4.41422166E-17
 -2.10786247E-32 -1.19708382E-34  1.64678564E-01  0.00000000E+00  0.00000000E+00
  0.00000000E+00  5.88690339E-01 -9.29409862E-17  0.00000000E+00  0.00000000E+00
  1.00000000E+00  7.91027073E-02  7.10235064E-01 -6.51281809E-16  1.26067557E-19
 -4.03416183E-18  6.29936196E-01  0.00000000E+00  0.00000000E+00 -1.14906041E-16
  3.23540475E-01 -9.02105126E-17  0.00000000E+00  0.00000000E+00  1.00000000E+00
  7.91027073E-02  7.10235064E-01 -2.17093936E-16  3.78202671E-19 -4.03416183E-18
  6.29936196E-01  0.00000000E+00  0.00000000E+00 -1.14906041E-16  3.23540475E-01
 -3.00701709E-17  0.00000000E+00  0.00000000E+00  3.33333333E-01  1.00000000E+00
  7.91027073E-02  7.10235064E-01 -2.17093936E-16  1.26067557E-19 -1.21024855E-17
  6.29936196E-01  0.00000000E+00  0.00000000E+00 -3.44718122E-16  3.23540475E-01
 -3.00701709E-17  0.00000000E+00  0.00000000E+00  3.33333333E-01  3.33333333E-01
  1.00000000E+00  2.46599165E-35 -2.59126635E-34  2.18355414E-19 -3.76017728E-16
 -1.86640961E-49  0.00000000E+00  0.00000000E+00  0.00000000E+00  0.00000000E+00
  0.00000000E+00  0.00000000E+00 -5.20830637E-17  0.00000000E+00  0.00000000E+00
  0.00000000E+00  0.00000000E+00  1.00000000E+00 -4.19000225E-32  8.29205232E-33
 -6.98737325E-18 -1.86640961E-49 -3.76017728E-16  0.00000000E+00 -1.99023101E-16
  0.00000000E+00  0.00000000E+00  0.00000000E+00  0.00000000E+00  0.00000000E+00
 -5.20830637E-17  0.00000000E+00  0.00000000E+00  0.00000000E+00  0.00000000E+00
  1.00000000E+00 -2.46599165E-35  2.59126635E-34 -1.86640961E-49 -6.98737325E-18
  2.18355414E-19  0.00000000E+00  0.00000000E+00 -1.99023101E-16  0.00000000E+00
  0.00000000E+00  0.00000000E+00  0.00000000E+00  0.00000000E+00  0.00000000E+00
  0.00000000E+00  0.00000000E+00  0.00000000E+00  0.00000000E+00  1.00000000E+00
  1.67621826E-07  7.01594701E-03  1.75397034E-02 -4.55739164E-10  2.73265847E-09
  4.56257505E-02  1.05842360E-01 -2.75013251E-09  1.64900748E-08  4.80880907E-02
  5.83914163E-02 -1.51720099E-09  9.09729171E-09  1.66590465E-02  2.85800020E-04
  2.85800020E-04 -7.36867723E-10  4.41833395E-09 -1.14802843E-16  1.00000000E+00
  7.01594701E-03  1.17910799E-01  1.81912478E-01 -4.72668430E-09  2.83416806E-08
  2.74991834E-01  4.96382560E-01 -1.28976510E-08  7.73356295E-08  2.84444918E-01
  3.21227743E-01 -8.34655295E-09  5.00467820E-08  2.16269577E-01  4.70559391E-02
  4.70559391E-02 -7.61535399E-09  4.56624385E-08 -1.18646029E-15  2.19058872E-01
  1.00000000E+00 -1.75397034E-02 -1.81912478E-01 -2.49013836E-01  8.07845329E-09
 -4.84392291E-08 -2.21056804E-01 -2.31180574E-01  1.07807040E-08 -6.46421997E-08
 -7.11616897E-02  3.48943049E-02  2.10947619E-09 -1.26486342E-08 -3.07920251E-01
 -8.13223676E-02 -8.13223676E-02  1.28310705E-08 -7.69364063E-08  2.40930527E-15
  7.64533088E-18  1.22042783E-17  1.00000000E+00  4.55739164E-10  4.72668430E-09
  8.07845329E-09  6.18957499E-02  1.25861044E-15  5.74378258E-09  1.07807040E-08
  1.83728579E-01  1.67961689E-15  1.84901468E-09  2.10947619E-09  1.16080188E-01
  3.28653104E-16  1.10413085E-08 -9.27505429E-10  2.11302249E-09  1.01341078E-01
  2.40930527E-15  1.57887822E-08  2.03720171E-18 -3.66631489E-18 -2.30864229E-34
  1.00000000E+00 -2.73265847E-09 -2.83416807E-08 -4.84392291E-08  1.25861044E-15
  6.18957499E-02 -3.44403056E-08 -6.46421997E-08  1.67961689E-15  1.83728579E-01
 -1.10868804E-08 -1.26486341E-08  3.28653103E-16  1.16080188E-01 -6.62048106E-08
 -1.26698982E-08  5.56141710E-09  2.40930527E-15  1.01341078E-01 -2.63317442E-09
 -5.74369889E-17  1.21217041E-16  8.27798192E-32 -3.63041800E-33  1.00000000E+00
  4.56257505E-02  2.74991834E-01  2.21056804E-01 -5.74378258E-09  3.44403057E-08
  4.84901450E-01  5.83419111E-01 -1.51591468E-08  9.08957886E-08  5.39953297E-01
  5.25579151E-01 -1.36562744E-08  8.18844130E-08  2.86692944E-01  1.90589390E-01
  1.90589390E-01 -4.32508038E-09  2.59336226E-08 -6.73840783E-16  1.84261053E-01
  8.12273068E-01  0.00000000E+00  0.00000000E+00 -9.17348497E-17  1.00000000E+00
 -1.05842360E-01 -4.96382560E-01 -2.31180574E-01  1.07807040E-08 -6.46421998E-08
 -5.83419111E-01 -2.17051204E-01  1.82390379E-08 -1.09363130E-07 -2.67792931E-01
  1.76164504E-01  6.77290755E-09 -4.06110438E-08 -4.09978579E-01 -3.78747797E-01
 -3.78747797E-01  5.00025791E-09 -2.99820559E-08  1.33908667E-15 -1.16092226E-17
  0.00000000E+00  5.69754058E-01  0.00000000E+00  0.00000000E+00 -1.82409015E-16
  1.00000000E+00  2.75013251E-09  1.28976510E-08  1.07807040E-08  1.83728579E-01
  1.67961689E-15  1.51591468E-08  1.82390379E-08  4.84901450E-01  2.84161370E-15
  6.95814084E-09  6.77290755E-09  4.36828495E-01  1.05520844E-15  1.48034352E-08
  5.69026936E-09  9.84111308E-09  1.38348007E-01  1.33908668E-15  2.15544039E-08
  8.95348262E-21  0.00000000E+00  0.00000000E+00  5.69754058E-01  0.00000000E+00
  0.00000000E+00  0.00000000E+00  1.00000000E+00 -1.64900748E-08 -7.73356295E-08
 -6.46421996E-08  1.67961689E-15  1.83728579E-01 -9.08957887E-08 -1.09363130E-07
  2.84161370E-15  4.84901450E-01 -4.17217216E-08 -4.06110439E-08  1.05520845E-15
  4.36828495E-01 -8.87629059E-08 -5.90083168E-08 -3.41194350E-08  1.33908668E-15
  1.38348007E-01 -3.59473611E-09 -2.86511444E-19  1.52981473E-17  0.00000000E+00
  0.00000000E+00  5.69754058E-01 -1.82409015E-16  3.32730486E-32  0.00000000E+00
  1.00000000E+00  4.80880907E-02  2.84444918E-01  7.11616897E-02 -1.84901468E-09
  1.10868804E-08  5.39953297E-01  2.67792931E-01 -6.95814084E-09  4.17217215E-08
  8.28690574E-01  5.08019692E-01 -1.32000219E-08  7.91486766E-08  2.35400707E-01
  2.26561232E-01  2.26561232E-01 -3.97815053E-10  2.38533960E-09 -6.19789656E-17
  6.97718343E-02  4.02090587E-01  2.50976212E-17 -2.74613985E-18 -4.12161348E-17
  7.27666104E-01 -1.32732857E-16  0.00000000E+00  0.00000000E+00  1.00000000E+00
 -5.83914163E-02 -3.21227743E-01  3.48943049E-02  2.10947619E-09 -1.26486342E-08
 -5.25579151E-01  1.76164504E-01  6.77290755E-09 -4.06110438E-08 -5.08019692E-01
  5.17254658E-01  8.09212908E-09 -4.85212305E-08 -2.44799766E-01 -2.63362664E-01
 -2.63362664E-01 -1.86488777E-10  1.11820571E-09  7.20465076E-17  2.25529800E-18
  4.59429729E-17  1.64678564E-01 -2.83769693E-34  6.74803252E-33 -6.76300053E-17
  5.88690339E-01  0.00000000E+00  0.00000000E+00  0.00000000E+00  1.00000000E+00
  1.51720098E-09  8.34655295E-09  2.10947619E-09  1.16080188E-01  3.28653105E-16
  1.36562744E-08  6.77290755E-09  4.36828495E-01  1.05520844E-15  1.32000220E-08
  8.09212908E-09  8.28690574E-01  1.26074110E-15  7.11001438E-09  6.09371639E-09
  6.84302795E-09  2.49746240E-02  7.20465076E-17  3.89100751E-09 -6.86972357E-20
 -1.28354553E-18 -2.83769693E-34  1.64678564E-01 -2.85407475E-35  0.00000000E+00
  0.00000000E+00  5.88690339E-01  0.00000000E+00  0.00000000E+00  0.00000000E+00
  1.00000000E+00 -9.09729169E-09 -5.00467819E-08 -1.26486341E-08  3.28653103E-16
  1.16080188E-01 -8.18844130E-08 -4.06110438E-08  1.05520845E-15  4.36828495E-01
 -7.91486767E-08 -4.85212305E-08  1.26074110E-15  8.28690574E-01 -4.26323707E-08
 -4.10314928E-08 -3.65385444E-08  7.20465076E-17  2.49746240E-02 -6.48922846E-10
  8.16227627E-18  3.70276133E-18  6.74803252E-33 -2.85407475E-35  1.64678564E-01
  0.00000000E+00  0.00000000E+00  0.00000000E+00  5.88690339E-01  0.00000000E+00
  0.00000000E+00  0.00000000E+00  1.00000000E+00  1.66590465E-02  2.16269577E-01
  3.07920251E-01 -1.10413085E-08  6.62048107E-08  2.86692944E-01  4.09978579E-01
 -1.48034352E-08  8.87629058E-08  2.35400707E-01  2.44799766E-01 -7.11001438E-09
  4.26323707E-08  3.92014515E-01  8.47199052E-02  8.47199052E-02 -1.95158405E-08
  1.17018968E-07 -4.07751417E-15  7.91027073E-02  7.10235064E-01  0.00000000E+00
 -1.69037579E-18  1.58967749E-16  6.29936196E-01  0.00000000E+00  3.59081378E-18
  0.00000000E+00  3.23540475E-01  0.00000000E+00  0.00000000E+00  0.00000000E+00
  1.00000000E+00  2.85800020E-04  4.70559391E-02  8.13223676E-02  9.27505429E-10
  1.26698982E-08  1.90589390E-01  3.78747797E-01 -5.69026936E-09  5.90083168E-08
  2.26561232E-01  2.63362664E-01 -6.09371639E-09  4.10314928E-08  8.47199052E-02
  3.23184264E-02  1.07728088E-02  3.32794285E-09  1.99546844E-08  5.18488311E-16
  7.91027073E-02  7.10235064E-01  0.00000000E+00 -5.07112737E-18  1.58967749E-16
  6.29936196E-01  0.00000000E+00  1.07724413E-17  0.00000000E+00  3.23540475E-01
  0.00000000E+00  0.00000000E+00  0.00000000E+00  3.33333333E-01  1.00000000E+00
  2.85800020E-04  4.70559391E-02  8.13223676E-02 -2.11302249E-09 -5.56141703E-09
  1.90589390E-01  3.78747797E-01 -9.84111308E-09  3.41194349E-08  2.26561232E-01
  2.63362664E-01 -6.84302795E-09  3.65385444E-08  8.47199052E-02  1.07728088E-02
  3.23184264E-02 -3.32794285E-09 -1.99546844E-08  5.18488310E-16  7.91027073E-02
  7.10235064E-01  0.00000000E+00 -1.69037579E-18  4.76903247E-16  6.29936196E-01
  0.00000000E+00  3.59081378E-18  0.00000000E+00  3.23540475E-01  0.00000000E+00
  0.00000000E+00  0.00000000E+00  3.33333333E-01  3.33333333E-01  1.00000000E+00
 -7.36867723E-10 -7.61535399E-09 -1.28310705E-08 -1.01341078E-01 -2.40930527E-15
 -4.32508038E-09 -5.00025791E-09 -1.38348007E-01 -1.33908668E-15 -3.97815053E-10
  1.86488777E-10 -2.49746240E-02 -7.20465076E-17 -1.95158405E-08  3.32794285E-09
 -3.32794285E-09 -1.89522863E-01 -5.26636551E-15 -3.45625273E-08 -1.66988931E-36
  0.00000000E+00 -2.92781675E-18  0.00000000E+00  0.00000000E+00  0.00000000E+00
  6.21947190E-18  0.00000000E+00  0.00000000E+00  0.00000000E+00  0.00000000E+00
  0.00000000E+00  0.00000000E+00  0.00000000E+00  0.00000000E+00  0.00000000E+00
  1.00000000E+00  4.41833395E-09  4.56624384E-08  7.69364061E-08 -2.40930527E-15
 -1.01341078E-01  2.59336227E-08  2.99820559E-08 -1.33908668E-15 -1.38348007E-01
  2.38533960E-09 -1.11820571E-09 -7.20465076E-17 -2.49746240E-02  1.17018968E-07
  1.99546844E-08 -1.99546844E-08 -5.26636550E-15 -1.89522863E-01  5.76416609E-09
  4.27425763E-32  0.00000000E+00  2.75340218E-16  0.00000000E+00  0.00000000E+00
  0.00000000E+00  0.00000000E+00  0.00000000E+00  0.00000000E+00  0.00000000E+00
  0.00000000E+00  0.00000000E+00  0.00000000E+00  0.00000000E+00  0.00000000E+00
  0.00000000E+00  0.00000000E+00  1.00000000E+00 -1.14802843E-16 -1.18646029E-15
 -2.40930527E-15 -1.57887821E-08  2.63317442E-09 -6.73840785E-16 -1.33908668E-15
 -2.15544040E-08  3.59473611E-09 -6.19789656E-17 -7.20465076E-17 -3.89100751E-09
  6.48922846E-10 -4.07751416E-15  5.18488311E-16  5.18488312E-16 -3.45625272E-08
  5.76416609E-09  3.23184264E-02 -1.66988931E-36  2.59126635E-34  0.00000000E+00
  2.75340218E-16 -2.92781675E-18  0.00000000E+00  0.00000000E+00  0.00000000E+00
  6.21947190E-18  0.00000000E+00  0.00000000E+00  0.00000000E+00  0.00000000E+00
  0.00000000E+00  0.00000000E+00  0.00000000E+00  0.00000000E+00  0.00000000E+00
  1.00000000E+00  2.88317122E-16  1.55916685E-05  4.76826355E-05  4.51842506E-06
 -3.68564788E-05  5.73507616E-03  1.65408587E-02  1.56741819E-03 -1.27853211E-02
  2.76533198E-02  4.17754810E-02  3.95866080E-03 -3.22905207E-02  5.65581365E-06
  1.26300032E-07  3.40978233E-06  9.15781290E-07 -7.46996426E-06 -7.07856714E-07
  1.71553185E-07  7.06567746E-03  4.31261256E-03  2.08257813E-03 -1.69874439E-02
  4.57344863E-02  2.59016887E-02  1.25080308E-02 -1.02027131E-01  4.81186289E-02
  1.42645857E-02  6.88842641E-03 -5.61884116E-02  1.27409016E-03  5.18360044E-04
  1.55803006E-02  8.24335567E-04 -6.72404746E-03 -3.24706985E-03  1.00000000E+00
  1.55916685E-05  3.89897756E-03  6.91367358E-03  6.55142393E-04 -5.34395091E-03
  5.44648863E-02  1.23010260E-01  1.16565000E-02 -9.50812593E-02  1.70019315E-01
  2.38919187E-01  2.26400750E-02 -1.84673516E-01  5.21245827E-03  8.01893447E-04
  3.42093240E-03  7.30464382E-04 -5.95834713E-03 -5.64615288E-04  7.06567746E-03
  1.18360710E-01  4.45904528E-02  2.15329109E-02 -1.75642446E-01  2.75501650E-01
  1.21409280E-01  5.86290345E-02 -4.78232927E-01  2.84612914E-01  7.84700309E-02
  3.78934969E-02 -3.09094599E-01  5.74093388E-02  4.96406604E-02  2.04472881E-01
  8.47392180E-03 -6.91211864E-02 -3.33789018E-02  2.19058872E-01  1.00000000E+00
 -4.76826355E-05 -6.91367358E-03 -1.07641516E-02 -1.18152719E-03  9.63763503E-03
 -5.15877871E-02 -8.53226115E-02 -1.13509181E-02  9.25886493E-02 -5.26456960E-02
 -5.68942905E-03 -7.07996739E-03  5.77508013E-02 -8.77702257E-03 -1.67355478E-03
 -7.17950831E-03 -1.35766044E-03  1.10743418E-02  1.18697950E-03 -4.31261256E-03
 -4.45904528E-02  4.35480416E-02 -8.98851227E-03  7.33186648E-02 -5.40722890E-02
  1.59305042E-01 -1.19652673E-02  9.75998468E-02 -1.73836005E-02  1.11307629E-01
 -2.33813385E-03  1.90719940E-02  3.73623517E-03 -2.11218334E-02 -9.79336046E-02
  7.80371476E-03 -6.36543545E-02  1.65591668E-02 -3.11094849E-17  1.86897758E-16
  1.00000000E+00 -4.51842506E-06 -6.55142393E-04 -1.18152719E-03  1.59246330E-03
  9.13266038E-04 -4.88847874E-03 -1.13509181E-02  3.33872461E-02  8.77373637E-03
 -4.98872660E-03 -7.07996739E-03  6.83540898E-02  5.47248836E-03 -1.03722803E-03
  4.69272597E-05 -6.80332996E-04  1.73269632E-03  1.18697950E-03 -1.33929437E-03
 -2.08257813E-03 -2.15329109E-02 -8.98851227E-03  5.78209058E-02  3.54058812E-02
 -2.61117281E-02 -1.19652673E-02  1.78304698E-01  4.71313627E-02 -8.39461135E-03
 -2.33813385E-03  1.15020353E-01  9.20994343E-03 -1.20609395E-02  3.66536343E-03
 -4.72925357E-02  2.28353217E-02  1.65591668E-02 -8.99486659E-02 -5.81786942E-18
 -7.75067908E-18  1.85739651E-32  1.00000000E+00  3.68564788E-05  5.34395091E-03
  9.63763503E-03  9.13266038E-04 -5.74502224E-03  3.98749809E-02  9.25886493E-02
  8.77373637E-03 -3.71038935E-02  4.06926957E-02  5.77508013E-02  5.47248836E-03
  2.43862835E-02  8.46059685E-03  1.29358068E-03  3.87306583E-03  1.18697950E-03
 -7.80389495E-03 -7.39500116E-04  1.69874439E-02  1.75642446E-01  7.33186648E-02
  3.54058812E-02 -2.26641798E-01  2.12991537E-01  9.75998468E-02  4.71313627E-02
 -2.00364449E-01  6.84742566E-02  1.90719940E-02  9.20994343E-03  4.10245844E-02
  9.83802381E-02  8.31992104E-02  2.72664577E-01  1.65591668E-02 -1.10206569E-01
 -5.32191999E-02  3.81557991E-17 -5.12839802E-18 -7.38765533E-33  0.00000000E+00
  1.00000000E+00  5.73507616E-03  5.44648863E-02  5.15877871E-02  4.88847874E-03
 -3.98749809E-02  1.65331540E-01  2.47486349E-01  2.34519026E-02 -1.91295537E-01
  3.46523439E-01  4.19645836E-01  3.97658024E-02 -3.24366883E-01  5.73877643E-02
  3.24570098E-02  4.72611493E-02  4.12895601E-03 -3.36796068E-02 -3.19149262E-03
  4.57344863E-02  2.75501650E-01  5.40722890E-02  2.61117281E-02 -2.12991537E-01
  4.85500474E-01  1.42610422E-01  6.88671522E-02 -5.61744535E-01  5.40228153E-01
  1.28378880E-01  6.19946828E-02 -5.05686284E-01  1.96718187E-01  1.92316917E-01
  2.80035637E-01  4.80081972E-03 -3.91599501E-02 -1.89104991E-02  1.84261053E-01
  8.12273068E-01  3.82215574E-16  4.77769468E-17  3.92695802E-17  1.00000000E+00
 -1.65408587E-02 -1.23010260E-01 -8.53226115E-02 -1.13509181E-02  9.25886493E-02
 -2.47486349E-01 -2.05133122E-01 -3.51053753E-02  2.86352103E-01 -2.13817820E-01
  2.14044397E-02 -2.45369756E-02  2.00146402E-01 -1.08274395E-01 -8.02469014E-02
 -1.16848743E-01 -7.45013462E-03  6.07702296E-02  7.89066508E-03 -2.59016887E-02
 -1.21409280E-01  1.59305042E-01 -1.19652673E-02  9.75998468E-02 -1.42610422E-01
  4.43610232E-01 -2.02289681E-02  1.65006276E-01 -6.54115681E-02  4.21506566E-01
 -7.50640150E-03  6.12291911E-02 -5.63592845E-02 -9.33046568E-02 -1.35862354E-01
  1.40146581E-02 -1.14316584E-01  9.17463558E-03 -6.15940400E-17  3.26928154E-16
  5.69754058E-01  1.74298916E-32  0.00000000E+00  0.00000000E+00  1.00000000E+00
 -1.56741819E-03 -1.16565000E-02 -1.13509181E-02  3.33872461E-02  8.77373637E-03
 -2.34519026E-02 -3.51053753E-02  1.62004941E-01  2.71348365E-02 -2.02614596E-02
 -2.45369756E-02  2.78016358E-01  1.89659508E-02 -1.34451578E-02 -4.41919345E-03
 -1.10726322E-02  2.81410128E-02  7.89066508E-03 -2.17517054E-02 -1.25080308E-02
 -5.86290345E-02 -1.19652673E-02  1.78304698E-01  4.71313627E-02 -6.88671522E-02
 -2.02289681E-02  4.75731823E-01  7.96822011E-02 -3.15875121E-02 -7.50640150E-03
  4.33425985E-01  2.95678253E-02 -4.60883550E-02 -2.61849706E-02 -6.56084829E-02
  3.27201106E-02  9.17463558E-03 -1.28884994E-01 -7.14883147E-18  4.08660193E-17
  1.74298916E-32  5.69754058E-01  0.00000000E+00  0.00000000E+00  0.00000000E+00
  1.00000000E+00  1.27853211E-02  9.50812593E-02  9.25886493E-02  8.77373637E-03
 -3.71038935E-02  1.91295537E-01  2.86352103E-01  2.71348365E-02 -5.60054329E-02
  1.65271316E-01  2.00146402E-01  1.89659508E-02  1.25637550E-01  1.09671216E-01
  6.20271549E-02  6.43385892E-02  7.89066508E-03 -3.52552361E-02 -3.34079986E-03
  1.02027131E-01  4.78232927E-01  9.75998468E-02  4.71313627E-02 -2.00364449E-01
  5.61744535E-01  1.65006276E-01  7.96822011E-02 -1.64461657E-01  2.57657123E-01
  6.12291911E-02  2.95678253E-02  1.95868178E-01  3.75939482E-01  3.67528407E-01
  3.81224362E-01  9.17463558E-03 -4.09919832E-02 -1.97951953E-02  1.33622571E-19
 -5.97816204E-18  0.00000000E+00  0.00000000E+00  5.69754058E-01  0.00000000E+00
  0.00000000E+00  0.00000000E+00  1.00000000E+00  2.76533198E-02  1.70019315E-01
  5.26456960E-02  4.98872660E-03 -4.06926957E-02  3.46523439E-01  2.13817820E-01
  2.02614596E-02 -1.65271316E-01  6.26725078E-01  4.78006267E-01  4.52960595E-02
 -3.69476805E-01  1.41454174E-01  1.33470374E-01  1.38211237E-01  1.32225283E-03
 -1.07855243E-02 -1.02204048E-03  4.81186289E-02  2.84612914E-01  1.73836005E-02
  8.39461135E-03 -6.84742566E-02  5.40228153E-01  6.54115681E-02  3.15875121E-02
 -2.57657123E-01  8.28956222E-01  1.24066400E-01  5.99121688E-02 -4.88699363E-01
  2.27226147E-01  2.26821903E-01  2.34878612E-01  4.40941304E-04 -3.59672733E-03
 -1.73687424E-03  6.97718343E-02  4.02090587E-01  1.75752950E-16  2.19691188E-17
 -2.82435241E-17  7.27666104E-01  0.00000000E+00  3.31832142E-17  0.00000000E+00
  1.00000000E+00 -4.17754810E-02 -2.38919187E-01 -5.68942905E-03 -7.07996739E-03