Jobname.Temp
SP        R                             6-31+G(d)           
Number of atoms                            I               14
Charge                                     I                0
Multiplicity                               I                1
Number of electrons                        I               40
Number of alpha electrons                  I               20
Number of beta electrons                   I               20
Atomic numbers                             I   N=          14
           6           6           6           7           6           1
           1           1           1           1           1           1
           1           1
Current cartesian coordinates              R   N=          42
 -1.26073027E+00 -1.54518730E-01  3.55482453E+00  1.26071921E+00 -1.54525245E-01
  3.55482560E+00  2.29899111E+00  4.13770520E-01 -2.19753496E+00  6.37192028E-06
 -5.07300551E-01 -2.64183595E+00 -2.29898514E+00  4.13758031E-01 -2.19754380E+00
 -2.34222477E+00 -1.88621050E+00  3.34151761E+00 -2.34130617E+00  1.57567109E+00
  3.79535032E+00  2.34220469E+00 -1.88622272E+00  3.34151949E+00  2.34130396E+00
  1.57565875E+00  3.79535264E+00  2.48139011E+00  2.30911879E+00 -1.46249066E+00
  3.91396245E+00 -7.06842604E-01 -2.74085834E+00  1.25202935E-05 -2.27911121E+00
 -3.37807366E+00 -2.48139742E+00  2.30910550E+00 -1.46250062E+00 -3.91394822E+00
 -7.06865180E-01 -2.74087111E+00
Nuclear charges                            R   N=          14
  6.00000000E+00  6.00000000E+00  6.00000000E+00  7.00000000E+00  6.00000000E+00
  1.00000000E+00  1.00000000E+00  1.00000000E+00  1.00000000E+00  1.00000000E+00
  1.00000000E+00  1.00000000E+00  1.00000000E+00  1.00000000E+00
Number of basis functions                  I              113
Number of contracted shells                I               43
Number of primitive shells                 I               96
Highest angular momentum                   I                2
Largest degree of contraction              I                6
Shell types                                I   N=          43
           0          -1          -1          -1           2           0
          -1          -1          -1           2           0          -1
          -1          -1           2           0          -1          -1
          -1           2           0          -1          -1          -1
           2           0           0           0           0           0
           0           0           0           0           0           0
           0           0           0           0           0           0
           0
Number of primitives per shell             I   N=          43
           6           3           1           1           1           6
           3           1           1           1           6           3
           1           1           1           6           3           1
           1           1           6           3           1           1
           1           3           1           3           1           3
           1           3           1           3           1           3
           1           3           1           3           1           3
           1
Shell to atom map                          I   N=          43
           1           1           1           1           1           2
           2           2           2           2           3           3
           3           3           3           4           4           4
           4           4           5           5           5           5
           5           6           6           7           7           8
           8           9           9          10          10          11
          11          12          12          13          13          14
          14
Primitive exponents                        R   N=          96
  3.04752490E+03  4.57369510E+02  1.03948690E+02  2.92101550E+01  9.28666300E+00
  3.16392700E+00  7.86827240E+00  1.88128850E+00  5.44249300E-01  1.68714400E-01
  4.38000000E-02  8.00000000E-01  3.04752490E+03  4.57369510E+02  1.03948690E+02
  2.92101550E+01  9.28666300E+00  3.16392700E+00  7.86827240E+00  1.88128850E+00
  5.44249300E-01  1.68714400E-01  4.38000000E-02  8.00000000E-01  3.04752490E+03
  4.57369510E+02  1.03948690E+02  2.92101550E+01  9.28666300E+00  3.16392700E+00
  7.86827240E+00  1.88128850E+00  5.44249300E-01  1.68714400E-01  4.38000000E-02
  8.00000000E-01  4.17351100E+03  6.27457900E+02  1.42902100E+02  4.02343300E+01
  1.28202100E+01  4.39043700E+00  1.16263580E+01  2.71628000E+00  7.72218000E-01
  2.12031300E-01  6.39000000E-02  8.00000000E-01  3.04752490E+03  4.57369510E+02
  1.03948690E+02  2.92101550E+01  9.28666300E+00  3.16392700E+00  7.86827240E+00
  1.88128850E+00  5.44249300E-01  1.68714400E-01  4.38000000E-02  8.00000000E-01
  1.87311370E+01  2.82539370E+00  6.40121700E-01  1.61277800E-01  1.87311370E+01
  2.82539370E+00  6.40121700E-01  1.61277800E-01  1.87311370E+01  2.82539370E+00
  6.40121700E-01  1.61277800E-01  1.87311370E+01  2.82539370E+00  6.40121700E-01
  1.61277800E-01  1.87311370E+01  2.82539370E+00  6.40121700E-01  1.61277800E-01
  1.87311370E+01  2.82539370E+00  6.40121700E-01  1.61277800E-01  1.87311370E+01
  2.82539370E+00  6.40121700E-01  1.61277800E-01  1.87311370E+01  2.82539370E+00
  6.40121700E-01  1.61277800E-01  1.87311370E+01  2.82539370E+00  6.40121700E-01
  1.61277800E-01
Contraction coefficients                   R   N=          96
  1.83470016E-03  1.40373012E-02  6.88426061E-02  2.32184421E-01  4.67941342E-01
  3.62312032E-01 -1.19332409E-01 -1.60854212E-01  1.14345648E+00  1.00000000E+00
  1.00000000E+00  1.00000000E+00  1.83470016E-03  1.40373012E-02  6.88426061E-02
  2.32184421E-01  4.67941342E-01  3.62312032E-01 -1.19332409E-01 -1.60854212E-01
  1.14345648E+00  1.00000000E+00  1.00000000E+00  1.00000000E+00  1.83470016E-03
  1.40373012E-02  6.88426061E-02  2.32184421E-01  4.67941342E-01  3.62312032E-01
 -1.19332409E-01 -1.60854212E-01  1.14345648E+00  1.00000000E+00  1.00000000E+00
  1.00000000E+00  1.83479944E-03  1.39949958E-02  6.85869792E-02  2.32240930E-01
  4.69069858E-01  3.60454891E-01 -1.14961023E-01 -1.69118034E-01  1.14585223E+00
  1.00000000E+00  1.00000000E+00  1.00000000E+00  1.83470016E-03  1.40373012E-02
  6.88426061E-02  2.32184421E-01  4.67941342E-01  3.62312032E-01 -1.19332409E-01
 -1.60854212E-01  1.14345648E+00  1.00000000E+00  1.00000000E+00  1.00000000E+00
  3.34945995E-02  2.34726947E-01  8.13757318E-01  1.00000000E+00  3.34945995E-02
  2.34726947E-01  8.13757318E-01  1.00000000E+00  3.34945995E-02  2.34726947E-01
  8.13757318E-01  1.00000000E+00  3.34945995E-02  2.34726947E-01  8.13757318E-01
  1.00000000E+00  3.34945995E-02  2.34726947E-01  8.13757318E-01  1.00000000E+00
  3.34945995E-02  2.34726947E-01  8.13757318E-01  1.00000000E+00  3.34945995E-02
  2.34726947E-01  8.13757318E-01  1.00000000E+00  3.34945995E-02  2.34726947E-01
  8.13757318E-01  1.00000000E+00  3.34945995E-02  2.34726947E-01  8.13757318E-01
  1.00000000E+00
P(S=P) Contraction coefficients            R   N=          96
  0.00000000E+00  0.00000000E+00  0.00000000E+00  0.00000000E+00  0.00000000E+00
  0.00000000E+00  6.89990956E-02  3.16423980E-01  7.44308252E-01  1.00000000E+00
  1.00000000E+00  0.00000000E+00  0.00000000E+00  0.00000000E+00  0.00000000E+00
  0.00000000E+00  0.00000000E+00  0.00000000E+00  6.89990956E-02  3.16423980E-01
  7.44308252E-01  1.00000000E+00  1.00000000E+00  0.00000000E+00  0.00000000E+00
  0.00000000E+00  0.00000000E+00  0.00000000E+00  0.00000000E+00  0.00000000E+00
  6.89990956E-02  3.16423980E-01  7.44308252E-01  1.00000000E+00  1.00000000E+00
  0.00000000E+00  0.00000000E+00  0.00000000E+00  0.00000000E+00  0.00000000E+00
  0.00000000E+00  0.00000000E+00  6.75800232E-02  3.23907111E-01  7.40895255E-01
  1.00000000E+00  1.00000000E+00  0.00000000E+00  0.00000000E+00  0.00000000E+00
  0.00000000E+00  0.00000000E+00  0.00000000E+00  0.00000000E+00  6.89990956E-02
  3.16423980E-01  7.44308252E-01  1.00000000E+00  1.00000000E+00  0.00000000E+00
  0.00000000E+00  0.00000000E+00  0.00000000E+00  0.00000000E+00  0.00000000E+00
  0.00000000E+00  0.00000000E+00  0.00000000E+00  0.00000000E+00  0.00000000E+00
  0.00000000E+00  0.00000000E+00  0.00000000E+00  0.00000000E+00  0.00000000E+00
  0.00000000E+00  0.00000000E+00  0.00000000E+00  0.00000000E+00  0.00000000E+00
  0.00000000E+00  0.00000000E+00  0.00000000E+00  0.00000000E+00  0.00000000E+00
  0.00000000E+00  0.00000000E+00  0.00000000E+00  0.00000000E+00  0.00000000E+00
  0.00000000E+00  0.00000000E+00  0.00000000E+00  0.00000000E+00  0.00000000E+00
  0.00000000E+00
Coordinates of each shell                  R   N=         129
 -1.26073027E+00 -1.54518730E-01  3.55482453E+00 -1.26073027E+00 -1.54518730E-01
  3.55482453E+00 -1.26073027E+00 -1.54518730E-01  3.55482453E+00 -1.26073027E+00
 -1.54518730E-01  3.55482453E+00 -1.26073027E+00 -1.54518730E-01  3.55482453E+00
  1.26071921E+00 -1.54525245E-01  3.55482560E+00  1.26071921E+00 -1.54525245E-01
  3.55482560E+00  1.26071921E+00 -1.54525245E-01  3.55482560E+00  1.26071921E+00
 -1.54525245E-01  3.55482560E+00  1.26071921E+00 -1.54525245E-01  3.55482560E+00
  2.29899111E+00  4.13770520E-01 -2.19753496E+00  2.29899111E+00  4.13770520E-01
 -2.19753496E+00  2.29899111E+00  4.13770520E-01 -2.19753496E+00  2.29899111E+00
  4.13770520E-01 -2.19753496E+00  2.29899111E+00  4.13770520E-01 -2.19753496E+00
  6.37192028E-06 -5.07300551E-01 -2.64183595E+00  6.37192028E-06 -5.07300551E-01
 -2.64183595E+00  6.37192028E-06 -5.07300551E-01 -2.64183595E+00  6.37192028E-06
 -5.07300551E-01 -2.64183595E+00  6.37192028E-06 -5.07300551E-01 -2.64183595E+00
 -2.29898514E+00  4.13758031E-01 -2.19754380E+00 -2.29898514E+00  4.13758031E-01
 -2.19754380E+00 -2.29898514E+00  4.13758031E-01 -2.19754380E+00 -2.29898514E+00
  4.13758031E-01 -2.19754380E+00 -2.29898514E+00  4.13758031E-01 -2.19754380E+00
 -2.34222477E+00 -1.88621050E+00  3.34151761E+00 -2.34222477E+00 -1.88621050E+00
  3.34151761E+00 -2.34130617E+00  1.57567109E+00  3.79535032E+00 -2.34130617E+00
  1.57567109E+00  3.79535032E+00  2.34220469E+00 -1.88622272E+00  3.34151949E+00
  2.34220469E+00 -1.88622272E+00  3.34151949E+00  2.34130396E+00  1.57565875E+00
  3.79535264E+00  2.34130396E+00  1.57565875E+00  3.79535264E+00  2.48139011E+00
  2.30911879E+00 -1.46249066E+00  2.48139011E+00  2.30911879E+00 -1.46249066E+00
  3.91396245E+00 -7.06842604E-01 -2.74085834E+00  3.91396245E+00 -7.06842604E-01
 -2.74085834E+00  1.25202935E-05 -2.27911121E+00 -3.37807366E+00  1.25202935E-05
 -2.27911121E+00 -3.37807366E+00 -2.48139742E+00  2.30910550E+00 -1.46250062E+00
 -2.48139742E+00  2.30910550E+00 -1.46250062E+00 -3.91394822E+00 -7.06865180E-01
 -2.74087111E+00 -3.91394822E+00 -7.06865180E-01 -2.74087111E+00
Overlap Matrix                             R   N=        6441
  1.00000000E+00  2.19058872E-01  1.00000000E+00  7.07186569E-17 -1.22042783E-17
  1.00000000E+00  1.54765833E-18  2.98414967E-18  1.80812713E-33  1.00000000E+00
 -1.69284660E-16  1.86897758E-16 -4.37053448E-32 -3.61625426E-33  1.00000000E+00
  1.84261053E-01  8.12273068E-01 -1.91107787E-16  0.00000000E+00  3.82215574E-16
  1.00000000E+00  1.16092226E-17 -1.63464077E-16  5.69754058E-01  0.00000000E+00
 -6.97195662E-32  0.00000000E+00  1.00000000E+00 -3.11025696E-19  0.00000000E+00
  0.00000000E+00  5.69754058E-01  0.00000000E+00  0.00000000E+00  0.00000000E+00
  1.00000000E+00 -2.81948563E-17  3.26928154E-16 -6.97195662E-32  0.00000000E+00
  5.69754058E-01  0.00000000E+00  0.00000000E+00  0.00000000E+00  1.00000000E+00
  6.97718343E-02  4.02090587E-01 -1.49276877E-16 -7.67505026E-18  1.75752950E-16
  7.27666104E-01  0.00000000E+00  0.00000000E+00  2.65465714E-16  1.00000000E+00
 -3.82230191E-18 -8.39476702E-17  1.64678564E-01  2.52066509E-33 -3.54092168E-32
  0.00000000E+00  5.88690339E-01  0.00000000E+00  0.00000000E+00  0.00000000E+00
  1.00000000E+00 -2.81451711E-19 -5.35927665E-18  2.52066509E-33  1.64678564E-01
 -2.15599455E-33  0.00000000E+00  0.00000000E+00  5.88690339E-01  0.00000000E+00
  0.00000000E+00  0.00000000E+00  1.00000000E+00  3.58918986E-18  8.21469140E-17
 -3.54092168E-32 -2.15599455E-33  1.64678564E-01  1.35260011E-16  0.00000000E+00
  0.00000000E+00  5.88690339E-01 -1.85881972E-16  0.00000000E+00  0.00000000E+00
  1.00000000E+00  7.91027073E-02  7.10235064E-01 -1.62276076E-16  0.00000000E+00
  5.58508570E-16  6.29936196E-01  0.00000000E+00  0.00000000E+00  0.00000000E+00
  3.23540475E-01  0.00000000E+00  0.00000000E+00  6.01403417E-17  1.00000000E+00
  7.91027073E-02  7.10235064E-01 -5.40920253E-17  0.00000000E+00  5.58508570E-16
  6.29936196E-01  0.00000000E+00  0.00000000E+00  0.00000000E+00  3.23540475E-01
  0.00000000E+00  0.00000000E+00  6.01403417E-17  3.33333333E-01  1.00000000E+00
  7.91027073E-02  7.10235064E-01 -5.40920253E-17  0.00000000E+00  1.67552571E-15
  6.29936196E-01  0.00000000E+00  0.00000000E+00  0.00000000E+00  3.23540475E-01
  0.00000000E+00  0.00000000E+00  1.80421025E-16  3.33333333E-01  3.33333333E-01
  1.00000000E+00  5.13886315E-33  0.00000000E+00  0.00000000E+00 -9.36901361E-17
  0.00000000E+00  0.00000000E+00  0.00000000E+00  0.00000000E+00  0.00000000E+00
  0.00000000E+00  0.00000000E+00  0.00000000E+00  0.00000000E+00  0.00000000E+00
  0.00000000E+00  0.00000000E+00  1.00000000E+00 -1.40887992E-31  8.88610771E-32
  9.67365220E-16  0.00000000E+00 -9.36901361E-17  0.00000000E+00  0.00000000E+00
  0.00000000E+00  0.00000000E+00  0.00000000E+00  1.04166127E-16  0.00000000E+00
  0.00000000E+00 -5.46538867E-31 -1.82179622E-31 -5.46538867E-31  0.00000000E+00
  1.00000000E+00 -1.02910854E-32  0.00000000E+00  0.00000000E+00  9.67365220E-16
  0.00000000E+00  0.00000000E+00  0.00000000E+00  0.00000000E+00  0.00000000E+00
  0.00000000E+00  0.00000000E+00  1.04166127E-16  0.00000000E+00  0.00000000E+00
  0.00000000E+00  0.00000000E+00 -3.15544362E-31  0.00000000E+00  1.00000000E+00
  5.71074353E-06  2.05268129E-02  4.46002745E-02 -1.15244212E-07  1.89297535E-08
  6.54960559E-02  1.30802621E-01 -3.37985476E-07  5.55167296E-08  5.29551629E-02
  5.53502962E-02 -1.43021570E-07  2.34923995E-08  5.57314356E-02  1.21486596E-03
  1.21486596E-03 -2.43989277E-07  4.00771265E-08 -1.03556692E-13  1.00000000E+00
  2.05268129E-02  2.08993381E-01  2.88222155E-01 -7.44747327E-07  1.22330511E-07
  3.64254827E-01  5.65266050E-01 -1.46061076E-06  2.39916618E-07  3.11128098E-01
  3.02441162E-01 -7.81488317E-07  1.28365503E-07  3.41245321E-01  9.60692405E-02
  9.60692405E-02 -1.09728721E-06  1.80237915E-07 -4.65723064E-13  2.19058872E-01
  1.00000000E+00 -4.46002745E-02 -2.88222155E-01 -3.37511679E-01  1.18115877E-06
 -1.94014467E-07 -2.54976500E-01 -1.66236993E-01  1.06568954E-06 -1.75047753E-07
 -6.70634393E-02  6.12249655E-02  1.70181228E-07 -2.79535835E-08 -4.18653562E-01
 -1.46099690E-01 -1.46099690E-01  1.70789674E-06 -2.80535254E-07  9.32041330E-13
  1.72292039E-17 -3.10027163E-17  1.00000000E+00  1.15244212E-07  7.44747327E-07
  1.18115877E-06  1.19604600E-01  5.01320781E-13  6.58842715E-07  1.06568954E-06
  2.46191928E-01  4.52312023E-13  1.73287571E-07  1.70181228E-07  1.27086230E-01
  7.22302441E-14  1.64535989E-06 -1.86074173E-07  3.77512109E-07  1.88890212E-01
  9.32041330E-13  8.01709226E-08  2.53730770E-17 -1.72584996E-17  0.00000000E+00
  1.00000000E+00 -1.89297536E-08 -1.22330511E-07 -1.94014467E-07  5.01320781E-13
  1.19604600E-01 -1.08220013E-07 -1.75047753E-07  4.52312022E-13  2.46191928E-01
 -2.84638242E-08 -2.79535835E-08  7.22302439E-14  1.27086230E-01 -2.70263093E-07
 -6.20092847E-08  3.05641227E-08  9.32041329E-13  1.88890212E-01 -4.88080037E-07
 -1.17535367E-16 -3.91278578E-16  7.42958602E-32 -1.79094477E-32  1.00000000E+00
  6.54960559E-02  3.64254827E-01  2.54976500E-01 -6.58842715E-07  1.08220014E-07
  5.84897651E-01  6.05767856E-01 -1.56526479E-06  2.57106853E-07  5.83338656E-01
  4.88766990E-01 -1.26294215E-06  2.07448021E-07  3.56826904E-01  2.59769732E-01
  2.59769732E-01 -4.34380031E-07  7.13502810E-08 -1.84364491E-13  1.84261053E-01
  8.12273068E-01  1.91107787E-16  0.00000000E+00  1.57078321E-16  1.00000000E+00
 -1.30802621E-01 -5.65266050E-01 -1.66236993E-01  1.06568954E-06 -1.75047753E-07
 -6.05767856E-01 -4.24850959E-02  1.62111627E-06 -2.66280890E-07 -2.49036410E-01
  2.63265471E-01  5.39169788E-07 -8.85628095E-08 -4.22964439E-01 -4.44364259E-01
 -4.44364259E-01  3.23639523E-07 -5.31602958E-08  3.15375429E-13 -1.16092226E-17
  1.63464077E-16  5.69754058E-01  0.00000000E+00  0.00000000E+00 -1.82409015E-16
  1.00000000E+00  3.37985476E-07  1.46061076E-06  1.06568954E-06  2.46191928E-01
  4.52312023E-13  1.56526479E-06  1.62111627E-06  5.84897651E-01  6.88052523E-13
  6.43493906E-07  5.39169788E-07  4.71927755E-01  2.28840547E-13  1.57721086E-06
  6.63910161E-07  1.14820838E-06  1.62316217E-01  3.15375429E-13  6.88920869E-08
  1.48937504E-18  0.00000000E+00  0.00000000E+00  5.69754058E-01  0.00000000E+00
  0.00000000E+00  0.00000000E+00  1.00000000E+00 -5.55167296E-08 -2.39916618E-07
 -1.75047753E-07  4.52312023E-13  2.46191928E-01 -2.57106853E-07 -2.66280890E-07
  6.88052522E-13  5.84897651E-01 -1.05698853E-07 -8.85628093E-08  2.28840547E-13
  4.71927755E-01 -2.59069087E-07 -1.88602111E-07 -1.09052381E-07  3.15375429E-13
  1.62316217E-01 -4.19414562E-07 -4.70472310E-17 -2.39126482E-17  0.00000000E+00
  0.00000000E+00  5.69754058E-01  0.00000000E+00  0.00000000E+00  0.00000000E+00
  1.00000000E+00  5.29551629E-02  3.11128098E-01  6.70634393E-02 -1.73287571E-07
  2.84638245E-08  5.83338656E-01  2.49036410E-01 -6.43493906E-07  1.05698853E-07
  8.70024598E-01  4.59112226E-01 -1.18631617E-06  1.94861610E-07  2.55650367E-01
  2.48467323E-01  2.48467323E-01 -3.21477616E-08  5.28051858E-09 -1.36445170E-14
  6.97718343E-02  4.02090587E-01  9.27898290E-17 -1.09845594E-17  3.71159316E-16
  7.27666104E-01 -1.32732857E-16  0.00000000E+00  0.00000000E+00  1.00000000E+00
 -5.53502962E-02 -3.02441162E-01  6.12249655E-02  1.70181228E-07 -2.79535837E-08
 -4.88766990E-01  2.63265471E-01  5.39169788E-07 -8.85628095E-08 -4.59112226E-01
  6.27750947E-01  6.26019377E-07 -1.02828527E-07 -2.28584098E-01 -2.48620577E-01
 -2.48620577E-01 -2.87529033E-08  4.72288684E-09  1.36529329E-14  2.20199585E-18
  4.04394553E-17  1.64678564E-01 -1.07799728E-33  3.44959129E-32 -6.76300053E-17
  5.88690339E-01  0.00000000E+00  0.00000000E+00  0.00000000E+00  1.00000000E+00
  1.43021570E-07  7.81488317E-07  1.70181228E-07  1.27086230E-01  7.22302446E-14
  1.26294215E-06  5.39169788E-07  4.71927755E-01  2.28840547E-13  1.18631617E-06
  6.26019377E-07  8.70024598E-01  2.65702233E-13  6.60991387E-07  5.72074494E-07
  6.42419420E-07  2.35766350E-02  1.36529329E-14  1.00066624E-08 -1.40722375E-23
 -5.13418212E-18 -1.07799728E-33  1.64678564E-01 -4.31198911E-33  0.00000000E+00
  0.00000000E+00  5.88690339E-01  0.00000000E+00  0.00000000E+00  0.00000000E+00
  1.00000000E+00 -2.34923995E-08 -1.28365503E-07 -2.79535835E-08  7.22302440E-14
  1.27086230E-01 -2.07448020E-07 -8.85628094E-08  2.28840547E-13  4.71927755E-01
 -1.94861610E-07 -1.02828526E-07  2.65702233E-13  8.70024598E-01 -1.08572950E-07
 -1.05522360E-07 -9.39676619E-08  1.36529329E-14  2.35766350E-02 -6.09204934E-08
  3.48303588E-18  1.61757821E-16  3.44959129E-32 -4.31198911E-33  1.64678564E-01
  0.00000000E+00  0.00000000E+00  0.00000000E+00  5.88690339E-01  0.00000000E+00
  0.00000000E+00  0.00000000E+00  1.00000000E+00  5.57314356E-02  3.41245321E-01
  4.18653562E-01 -1.64535989E-06  2.70263093E-07  3.56826904E-01  4.22964439E-01
 -1.57721086E-06  2.59069087E-07  2.55650367E-01  2.28584098E-01 -6.60991387E-07
  1.08572950E-07  4.90002180E-01  1.59505487E-01  1.59505487E-01 -2.43770185E-06
  4.00411391E-07 -1.54104671E-12  7.91027073E-02  7.10235064E-01  4.89005733E-16
 -2.03752389E-17  4.42256196E-16  6.29936196E-01  0.00000000E+00  0.00000000E+00
  0.00000000E+00  3.23540475E-01  0.00000000E+00  0.00000000E+00  0.00000000E+00
  1.00000000E+00  1.21486596E-03  9.60692405E-02  1.46099690E-01  1.86074173E-07
  6.20092848E-08  2.59769732E-01  4.44364259E-01 -6.63910161E-07  1.88602111E-07
  2.48467323E-01  2.48620577E-01 -5.72074494E-07  1.05522360E-07  1.59505487E-01
  7.86236296E-02  2.62078765E-02  5.96574358E-07  9.79919542E-08  2.53204845E-13
  7.91027073E-02  7.10235064E-01  1.63001911E-16 -6.11257166E-17  4.42256196E-16
  6.29936196E-01  0.00000000E+00  0.00000000E+00  0.00000000E+00  3.23540475E-01
  0.00000000E+00  0.00000000E+00  0.00000000E+00  3.33333333E-01  1.00000000E+00
  1.21486596E-03  9.60692405E-02  1.46099690E-01 -3.77512109E-07 -3.05641225E-08
  2.59769732E-01  4.44364259E-01 -1.14820838E-06  1.09052381E-07  2.48467323E-01
  2.48620577E-01 -6.42419420E-07  9.39676620E-08  1.59505487E-01  2.62078765E-02
  7.86236296E-02 -5.96574358E-07 -9.79919541E-08  2.53204844E-13  7.91027073E-02
  7.10235064E-01  1.63001911E-16 -2.03752389E-17  1.32676859E-15  6.29936196E-01
  0.00000000E+00  0.00000000E+00  0.00000000E+00  3.23540475E-01  0.00000000E+00
  0.00000000E+00  0.00000000E+00  3.33333333E-01  3.33333333E-01  1.00000000E+00
 -2.43989277E-07 -1.09728721E-06 -1.70789674E-06 -1.88890212E-01 -9.32041330E-13
 -4.34380031E-07 -3.23639523E-07 -1.62316217E-01 -3.15375429E-13 -3.21477616E-08
  2.87529033E-08 -2.35766350E-02 -1.36529329E-14 -2.43770185E-06  5.96574358E-07
 -5.96574358E-07 -3.21269201E-01 -1.79204389E-12 -1.69727043E-07 -5.13886315E-33
 -2.19356874E-32 -3.52909489E-17  2.82327591E-16 -9.35585748E-48  0.00000000E+00
  0.00000000E+00  0.00000000E+00  0.00000000E+00  0.00000000E+00  0.00000000E+00
  0.00000000E+00  0.00000000E+00 -3.41586792E-32 -3.41586792E-32 -1.13862264E-32
  1.00000000E+00  4.00771265E-08  1.80237914E-07  2.80535254E-07 -9.32041329E-13
 -1.88890212E-01  7.13502812E-08  5.31602959E-08 -3.15375429E-13 -1.62316217E-01
  5.28051854E-09 -4.72288680E-09 -1.36529328E-14 -2.35766350E-02  4.00411390E-07
  9.79919542E-08 -9.79919543E-08 -1.79204389E-12 -3.21269201E-01  1.03329710E-06
  8.22251860E-32  3.50970998E-31  7.66010202E-16 -9.35585748E-48  2.82327591E-16
  0.00000000E+00  0.00000000E+00  0.00000000E+00  0.00000000E+00  0.00000000E+00
  0.00000000E+00  0.00000000E+00  0.00000000E+00  0.00000000E+00  0.00000000E+00
  0.00000000E+00  0.00000000E+00  1.00000000E+00 -1.03556692E-13 -4.65723063E-13
 -9.32041329E-13 -8.01709224E-08  4.88080037E-07 -1.84364492E-13 -3.15375429E-13
 -6.88920871E-08  4.19414562E-07 -1.36445169E-14 -1.36529328E-14 -1.00066623E-08
  6.09204934E-08 -1.54104671E-12  2.53204844E-13  2.53204845E-13 -1.69727043E-07
  1.03329710E-06  7.86236296E-02 -1.19656968E-32 -4.38713747E-32 -9.35585748E-48
  7.66010202E-16 -3.52909489E-17  0.00000000E+00  0.00000000E+00  0.00000000E+00
  0.00000000E+00  0.00000000E+00  0.00000000E+00  0.00000000E+00  0.00000000E+00
  0.00000000E+00  0.00000000E+00  0.00000000E+00  0.00000000E+00 -1.97215226E-32
  1.00000000E+00  2.86129193E-33  1.34672154E-10  3.95860625E-10  6.31968950E-11
 -6.39694061E-10  1.02972668E-04  2.89716939E-04  4.62516598E-05 -4.68170344E-04
  9.45202237E-03  1.39471188E-02  2.22657811E-03 -2.25379552E-02  6.62207560E-13
  2.67308960E-14  1.71294292E-12  1.80312453E-13 -1.82516571E-12 -2.91377314E-13
  2.64117941E-25  3.10035479E-08  2.67306914E-08  1.46309833E-08 -1.48096637E-07
  6.76506241E-04  5.55494607E-04  3.04048714E-04 -3.07761897E-03  1.56288207E-02
  6.72645425E-03  3.68170948E-03 -3.72667222E-02  1.09859381E-10  4.46106410E-11
  2.87619765E-09  8.83168271E-11 -8.93953930E-10 -4.89303657E-10  1.00000000E+00
  1.34672154E-10  4.67747354E-06  7.99829176E-06  1.27688174E-06 -1.29249019E-05
  2.30876296E-03  5.12457214E-03  8.18108765E-04 -8.28109227E-03  6.26247130E-02
  8.59850380E-02  1.37270218E-02 -1.38948192E-01  1.65682199E-06  2.87442069E-07
  3.92103716E-06  3.88552826E-07 -3.93302448E-06 -6.27884966E-07  3.10035479E-08
  1.09578196E-04  5.47335169E-05  2.99582664E-05 -3.03241305E-04  1.01733554E-02
  6.57118541E-03  3.59672343E-03 -3.64064828E-02  9.99893888E-02  4.00375406E-02
  2.19144571E-02 -2.21820865E-01  1.58632713E-05  1.22850145E-05  1.67569937E-04
  4.84331635E-06 -4.90246516E-05 -2.68335319E-05  2.19058872E-01  1.00000000E+00
 -3.95860625E-10 -7.99829176E-06 -1.16990651E-05 -2.18432361E-06  2.21102451E-05
 -2.00216376E-03 -3.13874187E-03 -7.19687701E-04  7.28485075E-03 -1.87596882E-02
 -8.17584242E-04 -4.15052208E-03  4.20125756E-02 -2.67450406E-06 -5.84846178E-07
 -7.97810653E-06 -6.94275745E-07  7.02762487E-06  1.27755485E-06 -2.67306914E-08
 -5.47335169E-05  1.92253838E-05 -1.49994577E-05  1.51826380E-04 -2.63856527E-03
  4.44916014E-03 -9.51207028E-04  9.62823608E-03 -8.77520689E-03  3.68364344E-02
 -1.94174587E-03  1.96545937E-02 -7.30239979E-07 -7.29132559E-06 -9.94821963E-05
  1.24163276E-06 -1.25679616E-05  1.59307589E-05 -2.40073174E-16  2.14130561E-16
  1.00000000E+00 -6.31968950E-11 -1.27688174E-06 -2.18432361E-06  1.63465979E-06
  3.52977475E-06 -3.19634045E-04 -7.19687701E-04  1.25443403E-03  1.16298495E-03
 -2.99487741E-03 -4.15052208E-03  2.45183685E-02  6.70706849E-03 -5.38179738E-07
  1.78430291E-08 -1.27365929E-06  4.77072378E-07  1.27755485E-06 -7.70928827E-07
 -1.46309833E-08 -2.99582664E-05 -1.49994577E-05  3.84193559E-05  8.31018251E-05
 -1.44421272E-03 -9.51207028E-04  5.66636688E-03  5.26999319E-03 -4.80308960E-03
 -1.94174587E-03  3.93211786E-02  1.07578973E-02 -5.15365957E-06  7.63073841E-07
 -5.44513546E-05  5.94796985E-06  1.59307589E-05 -3.29536680E-05 -1.75530574E-17
 -4.63456232E-17  5.43928604E-32  1.00000000E+00  6.39694061E-10  1.29249019E-05
  2.21102451E-05  3.52977475E-06 -3.37458483E-05  3.23541212E-03  7.28485075E-03
  1.16298495E-03 -1.04026833E-02  3.03148643E-02  4.20125756E-02  6.70706849E-03
 -4.27095731E-02  5.44758382E-06  9.45086738E-07  1.17665853E-05  1.27755485E-06
 -1.23284302E-05 -1.96816369E-06  1.48096637E-07  3.03241305E-04  1.51826380E-04
  8.31018251E-05 -7.94537754E-04  1.46185011E-02  9.62823608E-03  5.26999319E-03
 -4.71565199E-02  4.86174714E-02  1.96545937E-02  1.07578973E-02 -6.85087883E-02
  5.21659844E-05  4.03962913E-05  5.03043177E-04  1.59307589E-05 -1.53731302E-04
 -8.41444797E-05  8.75155847E-17  3.43532183E-16 -4.35142883E-31 -8.41241669E-32
  1.00000000E+00  1.02972668E-04  2.30876296E-03  2.00216376E-03  3.19634045E-04
 -3.23541212E-03  2.04958101E-02  2.99679593E-02  4.78421409E-03 -4.84269574E-02
  1.46550757E-01  1.73354417E-01  2.76750457E-02 -2.80133421E-01  1.78827587E-03
  1.04444043E-03  3.01817814E-03  2.11058565E-04 -2.13638519E-03 -3.41061733E-04
  6.76506241E-04  1.01733554E-02  2.63856527E-03  1.44421272E-03 -1.46185011E-02
  5.45012208E-02  2.32430653E-02  1.27220391E-02 -1.28774065E-01  2.19315584E-01
  7.56678559E-02  4.14166294E-02 -4.19224284E-01  5.48187554E-03  5.25312325E-03
  1.51802424E-02  3.09625544E-04 -3.13406834E-03 -1.71542520E-03  1.84261053E-01
  8.12273068E-01  1.30686943E-16 -3.29892230E-18  2.63913784E-17  1.00000000E+00
 -2.89716939E-04 -5.12457214E-03 -3.13874187E-03 -7.19687701E-04  7.28485075E-03
 -2.99679593E-02 -2.33218571E-02 -6.99524109E-03  7.08075007E-02 -8.83274905E-02
  1.40789636E-02 -1.66800048E-02  1.68838992E-01 -3.27461469E-03 -2.52231883E-03
 -7.28888634E-03 -3.65357423E-04  3.69823507E-03  8.23662518E-04 -5.55494607E-04
 -6.57118541E-03  4.44916014E-03 -9.51207028E-04  9.62823608E-03 -2.32430653E-02
  4.45887808E-02 -5.42555161E-03  5.49181095E-02 -3.85542632E-02  1.64126937E-01
 -7.28077595E-03  7.36969215E-02 -2.32972615E-03 -3.70023230E-03 -1.06927671E-02
  5.07925472E-04 -5.14128492E-03  1.20832340E-03 -2.32569778E-17 -1.72290018E-17
  5.69754058E-01  1.20350633E-33 -9.62805064E-33  0.00000000E+00  1.00000000E+00
 -4.62516598E-05 -8.18108765E-04 -7.19687701E-04  1.25443403E-03  1.16298495E-03
 -4.78421409E-03 -6.99524109E-03  1.93790597E-02  1.13040143E-02 -1.41009810E-02
 -1.66800048E-02  1.15898399E-01  2.69541838E-02 -6.89452355E-04 -2.35995078E-04
 -1.16362921E-03  8.22813771E-04  8.23662518E-04 -1.32963232E-03 -3.04048714E-04
 -3.59672343E-03 -9.51207028E-04  5.66636688E-03  5.26999319E-03 -1.27220391E-02
 -5.42555161E-03  5.15315575E-02  3.00593027E-02 -2.11025885E-02 -7.28077595E-03
  1.73443741E-01  4.03378429E-02 -2.11350799E-03 -1.18697610E-03 -5.85266182E-03
  1.20706147E-03  1.20832340E-03 -6.68750919E-03 -2.90215378E-18  8.35455798E-19
  1.20350633E-33  5.69754058E-01 -1.20350633E-33  0.00000000E+00  0.00000000E+00
  1.00000000E+00  4.68170344E-04  8.28109227E-03  7.28485075E-03  1.16298495E-03
 -1.04026833E-02  4.84269574E-02  7.08075007E-02  1.13040143E-02 -9.39261223E-02
  1.42733497E-01  1.68838992E-01  2.69541838E-02 -1.54275418E-01  6.97880136E-03
  4.07596077E-03  1.00913704E-02  8.23662518E-04 -7.43312333E-03 -1.18665582E-03
  3.07761897E-03  3.64064828E-02  9.62823608E-03  5.26999319E-03 -4.71565199E-02
  1.28774065E-01  5.49181095E-02  3.00593027E-02 -2.49762787E-01  2.13603031E-01
  7.36969215E-02  4.03378429E-02 -2.30875815E-01  2.13931913E-02  2.05004783E-02
  5.07556139E-02  1.20832340E-03 -1.09043640E-02 -5.96847893E-03  2.32184452E-17
 -6.68364638E-18 -9.62805064E-33 -1.20350633E-33  5.69754058E-01  0.00000000E+00
  0.00000000E+00  0.00000000E+00  1.00000000E+00  9.45202237E-03  6.26247130E-02
  1.87596882E-02  2.99487741E-03 -3.03148643E-02  1.46550757E-01  8.83274905E-02
  1.41009810E-02 -1.42733497E-01  3.64494372E-01  2.71546299E-01  4.33508206E-02
 -4.38807358E-01  5.04827873E-02  4.78025548E-02  5.49144449E-02  7.60498881E-04
 -7.69795126E-03 -1.22893409E-03  1.56288207E-02  9.99893888E-02  8.77520689E-03
  4.80308960E-03 -4.86174714E-02  2.19315584E-01  3.85542632E-02  2.11025885E-02
 -2.13603031E-01  4.69848682E-01  1.02095397E-01  5.58816843E-02 -5.65641373E-01
  7.76290595E-02  7.73638346E-02  8.88737457E-02  3.58992614E-04 -3.63376798E-03
 -1.98893466E-03  6.97718343E-02  4.02090587E-01  1.85579658E-16  2.07407803E-17
  9.82670788E-18  7.27666104E-01  0.00000000E+00 -3.31832142E-17  0.00000000E+00
  1.00000000E+00 -1.39471188E-02 -8.59850380E-02 -8.17584242E-04 -4.15052208E-03