Jobname.Temp
SP        R                             6-31+G(d)           
Number of atoms                            I               14
Charge                                     I                0
Multiplicity                               I                1
Number of electrons                        I               40
Number of alpha electrons                  I               20
Number of beta electrons                   I               20
Atomic numbers                             I   N=          14
           6           6           6           7           6           1
           1           1           1           1           1           1
           1           1
Current cartesian coordinates              R   N=          42
 -1.28567643E+00 -1.23607941E-01  2.90013860E+00  1.28567535E+00 -1.23608135E-01
  2.90013894E+00  2.26409165E+00  3.85060698E-01 -1.69050938E+00  2.53026769E-07
 -5.28780616E-01 -2.36705182E+00 -2.26409138E+00  3.85060771E-01 -1.69051015E+00
 -2.35277196E+00 -1.87572778E+00  2.92761030E+00 -2.35000049E+00  1.58167557E+00
  3.31452160E+00  2.35277059E+00 -1.87572815E+00  2.92761095E+00  2.34999956E+00
  1.58167520E+00  3.31452231E+00  2.41371418E+00  2.39846475E+00 -1.37206082E+00
  3.91385691E+00 -6.52407500E-01 -2.31068269E+00  2.95573953E-07 -2.35828682E+00
 -2.93240116E+00 -2.41371397E+00  2.39846485E+00 -1.37206169E+00 -3.91385645E+00
 -6.52407379E-01 -2.31068407E+00
Nuclear charges                            R   N=          14
  6.00000000E+00  6.00000000E+00  6.00000000E+00  7.00000000E+00  6.00000000E+00
  1.00000000E+00  1.00000000E+00  1.00000000E+00  1.00000000E+00  1.00000000E+00
  1.00000000E+00  1.00000000E+00  1.00000000E+00  1.00000000E+00
Number of basis functions                  I              113
Number of contracted shells                I               43
Number of primitive shells                 I               96
Highest angular momentum                   I                2
Largest degree of contraction              I                6
Shell types                                I   N=          43
           0          -1          -1          -1           2           0
          -1          -1          -1           2           0          -1
          -1          -1           2           0          -1          -1
          -1           2           0          -1          -1          -1
           2           0           0           0           0           0
           0           0           0           0           0           0
           0           0           0           0           0           0
           0
Number of primitives per shell             I   N=          43
           6           3           1           1           1           6
           3           1           1           1           6           3
           1           1           1           6           3           1
           1           1           6           3           1           1
           1           3           1           3           1           3
           1           3           1           3           1           3
           1           3           1           3           1           3
           1
Shell to atom map                          I   N=          43
           1           1           1           1           1           2
           2           2           2           2           3           3
           3           3           3           4           4           4
           4           4           5           5           5           5
           5           6           6           7           7           8
           8           9           9          10          10          11
          11          12          12          13          13          14
          14
Primitive exponents                        R   N=          96
  3.04752490E+03  4.57369510E+02  1.03948690E+02  2.92101550E+01  9.28666300E+00
  3.16392700E+00  7.86827240E+00  1.88128850E+00  5.44249300E-01  1.68714400E-01
  4.38000000E-02  8.00000000E-01  3.04752490E+03  4.57369510E+02  1.03948690E+02
  2.92101550E+01  9.28666300E+00  3.16392700E+00  7.86827240E+00  1.88128850E+00
  5.44249300E-01  1.68714400E-01  4.38000000E-02  8.00000000E-01  3.04752490E+03
  4.57369510E+02  1.03948690E+02  2.92101550E+01  9.28666300E+00  3.16392700E+00
  7.86827240E+00  1.88128850E+00  5.44249300E-01  1.68714400E-01  4.38000000E-02
  8.00000000E-01  4.17351100E+03  6.27457900E+02  1.42902100E+02  4.02343300E+01
  1.28202100E+01  4.39043700E+00  1.16263580E+01  2.71628000E+00  7.72218000E-01
  2.12031300E-01  6.39000000E-02  8.00000000E-01  3.04752490E+03  4.57369510E+02
  1.03948690E+02  2.92101550E+01  9.28666300E+00  3.16392700E+00  7.86827240E+00
  1.88128850E+00  5.44249300E-01  1.68714400E-01  4.38000000E-02  8.00000000E-01
  1.87311370E+01  2.82539370E+00  6.40121700E-01  1.61277800E-01  1.87311370E+01
  2.82539370E+00  6.40121700E-01  1.61277800E-01  1.87311370E+01  2.82539370E+00
  6.40121700E-01  1.61277800E-01  1.87311370E+01  2.82539370E+00  6.40121700E-01
  1.61277800E-01  1.87311370E+01  2.82539370E+00  6.40121700E-01  1.61277800E-01
  1.87311370E+01  2.82539370E+00  6.40121700E-01  1.61277800E-01  1.87311370E+01
  2.82539370E+00  6.40121700E-01  1.61277800E-01  1.87311370E+01  2.82539370E+00
  6.40121700E-01  1.61277800E-01  1.87311370E+01  2.82539370E+00  6.40121700E-01
  1.61277800E-01
Contraction coefficients                   R   N=          96
  1.83470016E-03  1.40373012E-02  6.88426061E-02  2.32184421E-01  4.67941342E-01
  3.62312032E-01 -1.19332409E-01 -1.60854212E-01  1.14345648E+00  1.00000000E+00
  1.00000000E+00  1.00000000E+00  1.83470016E-03  1.40373012E-02  6.88426061E-02
  2.32184421E-01  4.67941342E-01  3.62312032E-01 -1.19332409E-01 -1.60854212E-01
  1.14345648E+00  1.00000000E+00  1.00000000E+00  1.00000000E+00  1.83470016E-03
  1.40373012E-02  6.88426061E-02  2.32184421E-01  4.67941342E-01  3.62312032E-01
 -1.19332409E-01 -1.60854212E-01  1.14345648E+00  1.00000000E+00  1.00000000E+00
  1.00000000E+00  1.83479944E-03  1.39949958E-02  6.85869792E-02  2.32240930E-01
  4.69069858E-01  3.60454891E-01 -1.14961023E-01 -1.69118034E-01  1.14585223E+00
  1.00000000E+00  1.00000000E+00  1.00000000E+00  1.83470016E-03  1.40373012E-02
  6.88426061E-02  2.32184421E-01  4.67941342E-01  3.62312032E-01 -1.19332409E-01
 -1.60854212E-01  1.14345648E+00  1.00000000E+00  1.00000000E+00  1.00000000E+00
  3.34945995E-02  2.34726947E-01  8.13757318E-01  1.00000000E+00  3.34945995E-02
  2.34726947E-01  8.13757318E-01  1.00000000E+00  3.34945995E-02  2.34726947E-01
  8.13757318E-01  1.00000000E+00  3.34945995E-02  2.34726947E-01  8.13757318E-01
  1.00000000E+00  3.34945995E-02  2.34726947E-01  8.13757318E-01  1.00000000E+00
  3.34945995E-02  2.34726947E-01  8.13757318E-01  1.00000000E+00  3.34945995E-02
  2.34726947E-01  8.13757318E-01  1.00000000E+00  3.34945995E-02  2.34726947E-01
  8.13757318E-01  1.00000000E+00  3.34945995E-02  2.34726947E-01  8.13757318E-01
  1.00000000E+00
P(S=P) Contraction coefficients            R   N=          96
  0.00000000E+00  0.00000000E+00  0.00000000E+00  0.00000000E+00  0.00000000E+00
  0.00000000E+00  6.89990956E-02  3.16423980E-01  7.44308252E-01  1.00000000E+00
  1.00000000E+00  0.00000000E+00  0.00000000E+00  0.00000000E+00  0.00000000E+00
  0.00000000E+00  0.00000000E+00  0.00000000E+00  6.89990956E-02  3.16423980E-01
  7.44308252E-01  1.00000000E+00  1.00000000E+00  0.00000000E+00  0.00000000E+00
  0.00000000E+00  0.00000000E+00  0.00000000E+00  0.00000000E+00  0.00000000E+00
  6.89990956E-02  3.16423980E-01  7.44308252E-01  1.00000000E+00  1.00000000E+00
  0.00000000E+00  0.00000000E+00  0.00000000E+00  0.00000000E+00  0.00000000E+00
  0.00000000E+00  0.00000000E+00  6.75800232E-02  3.23907111E-01  7.40895255E-01
  1.00000000E+00  1.00000000E+00  0.00000000E+00  0.00000000E+00  0.00000000E+00
  0.00000000E+00  0.00000000E+00  0.00000000E+00  0.00000000E+00  6.89990956E-02
  3.16423980E-01  7.44308252E-01  1.00000000E+00  1.00000000E+00  0.00000000E+00
  0.00000000E+00  0.00000000E+00  0.00000000E+00  0.00000000E+00  0.00000000E+00
  0.00000000E+00  0.00000000E+00  0.00000000E+00  0.00000000E+00  0.00000000E+00
  0.00000000E+00  0.00000000E+00  0.00000000E+00  0.00000000E+00  0.00000000E+00
  0.00000000E+00  0.00000000E+00  0.00000000E+00  0.00000000E+00  0.00000000E+00
  0.00000000E+00  0.00000000E+00  0.00000000E+00  0.00000000E+00  0.00000000E+00
  0.00000000E+00  0.00000000E+00  0.00000000E+00  0.00000000E+00  0.00000000E+00
  0.00000000E+00  0.00000000E+00  0.00000000E+00  0.00000000E+00  0.00000000E+00
  0.00000000E+00
Coordinates of each shell                  R   N=         129
 -1.28567643E+00 -1.23607941E-01  2.90013860E+00 -1.28567643E+00 -1.23607941E-01
  2.90013860E+00 -1.28567643E+00 -1.23607941E-01  2.90013860E+00 -1.28567643E+00
 -1.23607941E-01  2.90013860E+00 -1.28567643E+00 -1.23607941E-01  2.90013860E+00
  1.28567535E+00 -1.23608135E-01  2.90013894E+00  1.28567535E+00 -1.23608135E-01
  2.90013894E+00  1.28567535E+00 -1.23608135E-01  2.90013894E+00  1.28567535E+00
 -1.23608135E-01  2.90013894E+00  1.28567535E+00 -1.23608135E-01  2.90013894E+00
  2.26409165E+00  3.85060698E-01 -1.69050938E+00  2.26409165E+00  3.85060698E-01
 -1.69050938E+00  2.26409165E+00  3.85060698E-01 -1.69050938E+00  2.26409165E+00
  3.85060698E-01 -1.69050938E+00  2.26409165E+00  3.85060698E-01 -1.69050938E+00
  2.53026769E-07 -5.28780616E-01 -2.36705182E+00  2.53026769E-07 -5.28780616E-01
 -2.36705182E+00  2.53026769E-07 -5.28780616E-01 -2.36705182E+00  2.53026769E-07
 -5.28780616E-01 -2.36705182E+00  2.53026769E-07 -5.28780616E-01 -2.36705182E+00
 -2.26409138E+00  3.85060771E-01 -1.69051015E+00 -2.26409138E+00  3.85060771E-01
 -1.69051015E+00 -2.26409138E+00  3.85060771E-01 -1.69051015E+00 -2.26409138E+00
  3.85060771E-01 -1.69051015E+00 -2.26409138E+00  3.85060771E-01 -1.69051015E+00
 -2.35277196E+00 -1.87572778E+00  2.92761030E+00 -2.35277196E+00 -1.87572778E+00
  2.92761030E+00 -2.35000049E+00  1.58167557E+00  3.31452160E+00 -2.35000049E+00
  1.58167557E+00  3.31452160E+00  2.35277059E+00 -1.87572815E+00  2.92761095E+00
  2.35277059E+00 -1.87572815E+00  2.92761095E+00  2.34999956E+00  1.58167520E+00
  3.31452231E+00  2.34999956E+00  1.58167520E+00  3.31452231E+00  2.41371418E+00
  2.39846475E+00 -1.37206082E+00  2.41371418E+00  2.39846475E+00 -1.37206082E+00
  3.91385691E+00 -6.52407500E-01 -2.31068269E+00  3.91385691E+00 -6.52407500E-01
 -2.31068269E+00  2.95573953E-07 -2.35828682E+00 -2.93240116E+00  2.95573953E-07
 -2.35828682E+00 -2.93240116E+00 -2.41371397E+00  2.39846485E+00 -1.37206169E+00
 -2.41371397E+00  2.39846485E+00 -1.37206169E+00 -3.91385645E+00 -6.52407379E-01
 -2.31068407E+00 -3.91385645E+00 -6.52407379E-01 -2.31068407E+00
Overlap Matrix                             R   N=        6441
  1.00000000E+00  2.19058872E-01  1.00000000E+00  2.40858087E-17 -8.31920831E-17
  1.00000000E+00  1.18929688E-18  2.17077304E-17  4.12987276E-33  1.00000000E+00
 -9.13874946E-17  1.86897758E-16 -2.46501476E-31 -9.18320245E-33  1.00000000E+00
  1.84261053E-01  8.12273068E-01 -1.91107787E-16 -1.11195061E-17  0.00000000E+00
  1.00000000E+00  2.67245142E-19 -1.63464077E-16  5.69754058E-01  2.17873644E-33
  0.00000000E+00  0.00000000E+00  1.00000000E+00  1.47143011E-18 -1.04253688E-17
  2.17873644E-33  5.69754058E-01  0.00000000E+00  1.14005634E-17  0.00000000E+00
  1.00000000E+00  1.51186170E-17  0.00000000E+00  0.00000000E+00  0.00000000E+00
  5.69754058E-01  0.00000000E+00  0.00000000E+00  0.00000000E+00  1.00000000E+00
  6.97718343E-02  4.02090587E-01  0.00000000E+00  2.26892381E-18  1.12974096E-16
  7.27666104E-01  0.00000000E+00  8.29580356E-18  0.00000000E+00  1.00000000E+00
 -1.73437448E-18  0.00000000E+00  1.64678564E-01  0.00000000E+00  0.00000000E+00
  0.00000000E+00  5.88690339E-01  0.00000000E+00  0.00000000E+00  0.00000000E+00
  1.00000000E+00 -3.44184123E-19 -1.91797477E-19  0.00000000E+00  1.64678564E-01
 -4.21752032E-34  4.22687533E-18  0.00000000E+00  5.88690339E-01  0.00000000E+00
  0.00000000E+00  0.00000000E+00  1.00000000E+00  7.53799952E-18  8.70164298E-17
  0.00000000E+00 -4.21752032E-34  1.64678564E-01  0.00000000E+00  0.00000000E+00
  0.00000000E+00  5.88690339E-01  0.00000000E+00  0.00000000E+00  0.00000000E+00
  1.00000000E+00  7.91027073E-02  7.10235064E-01 -1.74378561E-16  2.52135114E-19
  1.16252374E-16  6.29936196E-01  0.00000000E+00  0.00000000E+00  0.00000000E+00
  3.23540475E-01 -9.02105126E-17  0.00000000E+00  0.00000000E+00  1.00000000E+00
  7.91027073E-02  7.10235064E-01 -5.81261871E-17  7.56405342E-19  1.16252374E-16
  6.29936196E-01  0.00000000E+00  0.00000000E+00  0.00000000E+00  3.23540475E-01
 -3.00701709E-17  0.00000000E+00  0.00000000E+00  3.33333333E-01  1.00000000E+00
  7.91027073E-02  7.10235064E-01 -5.81261871E-17  2.52135114E-19  3.48757123E-16
  6.29936196E-01  0.00000000E+00  0.00000000E+00  0.00000000E+00  3.23540475E-01
 -3.00701709E-17  0.00000000E+00  0.00000000E+00  3.33333333E-01  3.33333333E-01
  1.00000000E+00  1.06997189E-32  0.00000000E+00  4.36710828E-19 -1.00677509E-16
  0.00000000E+00  0.00000000E+00  0.00000000E+00  0.00000000E+00  0.00000000E+00
  0.00000000E+00  0.00000000E+00 -5.20830637E-17  0.00000000E+00  0.00000000E+00
  0.00000000E+00  0.00000000E+00  1.00000000E+00 -3.30682598E-31  4.44305385E-32
  2.01355019E-16  0.00000000E+00 -1.00677509E-16  0.00000000E+00  0.00000000E+00
  0.00000000E+00  0.00000000E+00  0.00000000E+00  0.00000000E+00  0.00000000E+00
 -5.20830637E-17  0.00000000E+00  0.00000000E+00  0.00000000E+00 -1.97215226E-32
  1.00000000E+00 -2.05688117E-32  0.00000000E+00  0.00000000E+00  2.01355019E-16
  4.36710828E-19  0.00000000E+00  0.00000000E+00  0.00000000E+00  0.00000000E+00
  0.00000000E+00  0.00000000E+00  0.00000000E+00  0.00000000E+00 -1.13862264E-32
 -3.41586792E-32 -3.41586792E-32  0.00000000E+00  0.00000000E+00  1.00000000E+00
  3.80993793E-06  1.81547178E-02  4.01569579E-02 -3.03353523E-09  5.31776158E-09
  6.28436464E-02  1.27987594E-01 -9.66843343E-09  1.69486820E-08  5.23745825E-02
  5.58268761E-02 -4.21727153E-09  7.39284132E-09  4.87425311E-02  1.02930167E-03
  1.02930167E-03 -6.24291867E-09  1.09437836E-08 -8.26714843E-16  1.00000000E+00
  1.81547178E-02  1.95888494E-01  2.74133120E-01 -2.07085526E-08  3.63019176E-08
  3.52738841E-01  5.58311988E-01 -4.21759808E-08  7.39341376E-08  3.07954504E-01
  3.05281769E-01 -2.30615826E-08  4.04267592E-08  3.25140654E-01  8.85566258E-02
  8.85566258E-02 -3.09552480E-08  5.42642878E-08 -4.09923055E-15  2.19058872E-01
  1.00000000E+00 -4.01569579E-02 -2.74133120E-01 -3.28094431E-01  3.31567340E-08
 -5.81234741E-08 -2.51461183E-01 -1.76651208E-01  3.13300411E-08 -5.49212970E-08
 -6.76859619E-02  5.79886570E-02  5.12083841E-09 -8.97678640E-09 -4.07136106E-01
 -1.36908827E-01 -1.36908827E-01  4.86600405E-08 -8.53006392E-08  8.20539613E-15
 -5.89839420E-17 -2.78831372E-16  1.00000000E+00  3.03353523E-09  2.07085527E-08
  3.31567340E-08  1.10823686E-01  4.39076104E-15  1.89958701E-08  3.13300411E-08
  2.38085739E-01  4.14886231E-15  5.11313010E-09  5.12083841E-09  1.25776659E-01
  6.78124022E-16  4.61166380E-08 -5.01841851E-09  1.03423608E-08  1.76098495E-01
  8.20539613E-15  2.33197399E-08  4.43031463E-18  1.15864058E-17 -3.71641331E-33
  1.00000000E+00 -5.31776159E-09 -3.63019175E-08 -5.81234740E-08  4.39076103E-15
  1.10823686E-01 -3.32995994E-08 -5.49212967E-08  4.14886229E-15  2.38085739E-01
 -8.96327369E-09 -8.97678630E-09  6.78124014E-16  1.25776659E-01 -8.08420760E-08
 -1.81300710E-08  8.79724523E-09  8.20539610E-15  1.76098495E-01 -1.33028251E-08
 -1.03561515E-16 -4.77463947E-17  0.00000000E+00 -1.80812713E-33  1.00000000E+00
  6.28436464E-02  3.52738841E-01  2.51461183E-01 -1.89958701E-08  3.32995998E-08
  5.72491637E-01  6.04653705E-01 -4.56767248E-08  8.00709122E-08  5.78206281E-01
  4.94054819E-01 -3.73218684E-08  6.54249195E-08  3.48157595E-01  2.50732285E-01
  2.50732285E-01 -1.27473720E-08  2.23460351E-08 -1.68806325E-15  1.84261053E-01
  8.12273068E-01  0.00000000E+00  8.24730574E-19  0.00000000E+00  1.00000000E+00
 -1.27987594E-01 -5.58311988E-01 -1.76651208E-01  3.13300411E-08 -5.49212972E-08
 -6.04653705E-01 -6.61309721E-02  4.82428024E-08 -8.45692244E-08 -2.51730663E-01
  2.52681526E-01  1.62486278E-08 -2.84837071E-08 -4.22861751E-01 -4.37393231E-01
 -4.37393231E-01  1.01679927E-08 -1.78244050E-08  2.94476412E-15 -1.16092226E-17
  0.00000000E+00  5.69754058E-01  0.00000000E+00  0.00000000E+00  0.00000000E+00
  1.00000000E+00  9.66843343E-09  4.21759808E-08  3.13300411E-08  2.38085739E-01
  4.14886233E-15  4.56767248E-08  4.82428024E-08  5.72491637E-01  6.38852480E-15
  1.90162272E-08  1.62486278E-08  4.67775604E-01  2.15171501E-15  4.58802641E-08
  1.91050816E-08  3.30415411E-08  1.59769858E-01  2.94476412E-15  2.11574297E-08
  1.04252035E-18 -2.08863949E-19  0.00000000E+00  5.69754058E-01  0.00000000E+00
  0.00000000E+00  0.00000000E+00  1.00000000E+00 -1.69486820E-08 -7.39341373E-08
 -5.49212968E-08  4.14886230E-15  2.38085739E-01 -8.00709120E-08 -8.45692242E-08
  6.38852478E-15  5.72491637E-01 -3.33352852E-08 -2.84837070E-08  2.15171500E-15
  4.67775604E-01 -8.04277148E-08 -5.79215419E-08 -3.34910465E-08  2.94476413E-15
  1.59769858E-01 -1.20693279E-08 -2.32184452E-17  0.00000000E+00  0.00000000E+00
  0.00000000E+00  5.69754058E-01  0.00000000E+00  0.00000000E+00  0.00000000E+00
  1.00000000E+00  5.23745825E-02  3.07954504E-01  6.76859619E-02 -5.11313009E-09
  8.96327407E-09  5.78206281E-01  2.51730663E-01 -1.90162272E-08  3.33352854E-08
  8.65195735E-01  4.65599945E-01 -3.51723315E-08  6.16567994E-08  2.53250635E-01
  2.45858879E-01  2.45858879E-01 -9.67155820E-10  1.69541596E-09 -1.28075041E-16
  6.97718343E-02  4.02090587E-01  5.64870481E-17  6.14169242E-19 -9.82670788E-18
  7.27666104E-01  0.00000000E+00 -8.29580356E-18  0.00000000E+00  1.00000000E+00
 -5.58268761E-02 -3.05281769E-01  5.79886570E-02  5.12083840E-09 -8.97678667E-09
 -4.94054819E-01  2.52681526E-01  1.62486278E-08 -2.84837072E-08 -4.65599945E-01
  6.14635890E-01  1.89277813E-08 -3.31802404E-08 -2.30950754E-01 -2.50879347E-01
 -2.50879347E-01 -8.10300905E-10  1.42045062E-09  1.30690349E-16  5.96731130E-18
  4.35082149E-17  1.64678564E-01 -5.70814951E-35  9.13303921E-34  0.00000000E+00
  5.88690339E-01  0.00000000E+00  0.00000000E+00  0.00000000E+00  1.00000000E+00
  4.21727153E-09  2.30615826E-08  5.12083841E-09  1.25776659E-01  6.78124042E-16
  3.73218684E-08  1.62486278E-08  4.67775604E-01  2.15171501E-15  3.51723315E-08
  1.89277813E-08  8.65195735E-01  2.50650033E-15  1.95217071E-08  1.68766822E-08
  1.89519171E-08  2.37908337E-02  1.30690349E-16  3.15048717E-09 -2.49340458E-19
 -7.92502121E-20 -5.70814951E-35  1.64678564E-01 -1.14162990E-34 -4.22687533E-18
  0.00000000E+00  5.88690339E-01  0.00000000E+00  0.00000000E+00  0.00000000E+00
  1.00000000E+00 -7.39284130E-09 -4.04267590E-08 -8.97678637E-09  6.78124019E-16
  1.25776659E-01 -6.54249194E-08 -2.84837071E-08  2.15171500E-15  4.67775604E-01
 -6.16567996E-08 -3.31802405E-08  2.50650033E-15  8.65195735E-01 -3.42213874E-08
 -3.32225503E-08 -2.95846811E-08  1.30690349E-16  2.37908337E-02 -1.79720616E-09
  1.11131276E-17  1.26800339E-18  9.13303921E-34 -1.14162990E-34  1.64678564E-01
  0.00000000E+00  0.00000000E+00  0.00000000E+00  5.88690339E-01  0.00000000E+00
  0.00000000E+00  0.00000000E+00  1.00000000E+00  4.87425311E-02  3.25140654E-01
  4.07136106E-01 -4.61166380E-08  8.08420760E-08  3.48157595E-01  4.22861751E-01
 -4.58802641E-08  8.04277146E-08  2.53250635E-01  2.30950754E-01 -1.95217071E-08
  3.42213873E-08  4.82953405E-01  1.48900961E-01  1.48900961E-01 -7.02828314E-08
  1.23205209E-07 -1.36466923E-14  7.91027073E-02  7.10235064E-01  0.00000000E+00
  2.52135114E-19  0.00000000E+00  6.29936196E-01 -3.44718122E-16  7.18162755E-18
 -2.29812082E-16  3.23540475E-01  0.00000000E+00  1.87938568E-18 -6.01403417E-17
  1.00000000E+00  1.02930167E-03  8.85566258E-02  1.36908827E-01  5.01841851E-09
  1.81300710E-08  2.50732285E-01  4.37393231E-01 -1.91050816E-08  5.79215418E-08
  2.45858879E-01  2.50879347E-01 -1.68766822E-08  3.32225502E-08  1.48900961E-01
  7.10238181E-02  2.36746060E-02  1.63849305E-08  2.87226445E-08  2.16976481E-15
  7.91027073E-02  7.10235064E-01  0.00000000E+00  7.56405342E-19  0.00000000E+00
  6.29936196E-01 -1.14906041E-16  2.15448827E-17 -2.29812082E-16  3.23540475E-01
  0.00000000E+00  5.63815703E-18 -6.01403417E-17  3.33333333E-01  1.00000000E+00
  1.02930167E-03  8.85566258E-02  1.36908827E-01 -1.03423608E-08 -8.79724522E-09
  2.50732285E-01  4.37393231E-01 -3.30415411E-08  3.34910463E-08  2.45858879E-01
  2.50879347E-01 -1.89519171E-08  2.95846809E-08  1.48900961E-01  2.36746060E-02
  7.10238181E-02 -1.63849305E-08 -2.87226444E-08  2.16976480E-15  7.91027073E-02
  7.10235064E-01  0.00000000E+00  2.52135114E-19  0.00000000E+00  6.29936196E-01
 -1.14906041E-16  7.18162755E-18 -6.89436245E-16  3.23540475E-01  0.00000000E+00
  1.87938568E-18 -1.80421025E-16  3.33333333E-01  3.33333333E-01  1.00000000E+00
 -6.24291867E-09 -3.09552480E-08 -4.86600405E-08 -1.76098495E-01 -8.20539611E-15
 -1.27473720E-08 -1.01679927E-08 -1.59769858E-01 -2.94476413E-15 -9.67155821E-10
  8.10300906E-10 -2.37908337E-02 -1.30690349E-16 -7.02828314E-08  1.63849305E-08
 -1.63849305E-08 -3.04655246E-01 -1.61204787E-14 -4.97490797E-08 -5.18818298E-33
  0.00000000E+00  4.36710828E-19  0.00000000E+00  0.00000000E+00 -6.51393485E-33
  1.24389438E-17 -1.99023101E-16  2.37640087E-48  0.00000000E+00  3.25519148E-18
  0.00000000E+00  0.00000000E+00  0.00000000E+00  0.00000000E+00  0.00000000E+00
  1.00000000E+00  1.09437836E-08  5.42642878E-08  8.53006392E-08 -8.20539612E-15
 -1.76098495E-01  2.23460353E-08  1.78244052E-08 -2.94476414E-15 -1.59769858E-01
  1.69541600E-09 -1.42045066E-09 -1.30690352E-16 -2.37908337E-02  1.23205209E-07
  2.87226445E-08 -2.87226446E-08 -1.61204787E-14 -3.04655246E-01  2.83795321E-08
  1.79422122E-31  0.00000000E+00  0.00000000E+00  0.00000000E+00  0.00000000E+00
  2.08445915E-31 -3.98046202E-16  2.37640087E-48 -1.99023101E-16  0.00000000E+00
 -1.04166127E-16  0.00000000E+00  0.00000000E+00  0.00000000E+00  0.00000000E+00
  0.00000000E+00  0.00000000E+00  1.00000000E+00 -8.26714840E-16 -4.09923055E-15
 -8.20539612E-15 -2.33197399E-08  1.33028251E-08 -1.68806326E-15 -2.94476414E-15
 -2.11574298E-08  1.20693279E-08 -1.28075045E-16 -1.30690352E-16 -3.15048725E-09
  1.79720616E-09 -1.36466923E-14  2.16976480E-15  2.16976481E-15 -4.97490795E-08
  2.83795321E-08  7.10238181E-02 -5.23750281E-33  0.00000000E+00  0.00000000E+00
  0.00000000E+00  4.36710828E-19 -1.30278697E-32  2.37640087E-48 -3.98046202E-16
  1.24389438E-17 -5.82839836E-33  0.00000000E+00 -1.04166127E-16  3.25519148E-18
  0.00000000E+00  0.00000000E+00  0.00000000E+00  0.00000000E+00  0.00000000E+00
  1.00000000E+00  6.37471176E-25  4.02955822E-08  1.18821601E-07  1.70266961E-08
 -1.53663037E-07  7.40560641E-04  2.07907532E-03  2.97923806E-04 -2.68871169E-03
  1.60110063E-02  2.35595908E-02  3.37600224E-03 -3.04678462E-02  1.58084220E-09
  5.58189688E-11  2.62781230E-09  3.86440494E-10 -3.48755975E-09 -4.99754416E-10
  6.36829581E-17  9.90463563E-06  8.12462322E-06  4.22391023E-06 -3.81200599E-05
  4.91086169E-03  3.80240718E-03  1.97683341E-03 -1.78405799E-02  2.65316368E-02
  1.07607370E-02  5.59439940E-03 -5.04884879E-02  2.57558032E-07  9.97450154E-08
  4.80220802E-06  1.94743056E-07 -1.75752243E-06 -9.13718305E-07  1.00000000E+00
  4.02955822E-08  1.27497413E-04  2.17765017E-04  3.12049216E-05 -2.81619112E-04
  1.09236447E-02  2.41200756E-02  3.45631763E-03 -3.11926790E-02  1.02262325E-01
  1.39995847E-01  2.00608871E-02 -1.81046096E-01  8.44023395E-05  1.43492109E-05
  1.32495726E-04  1.77514448E-05 -1.60203771E-04 -2.29566080E-05  9.90463563E-06
  3.01082266E-03  1.43080483E-03  7.43861098E-04 -6.71321786E-03  4.82326692E-02
  2.92560635E-02  1.52099344E-02 -1.37267029E-01  1.63595015E-01  6.17208858E-02
  3.20880703E-02 -2.89589289E-01  7.94921972E-04  6.23008455E-04  5.74563376E-03
  2.12143233E-04 -1.91455602E-03 -9.95358498E-04  2.19058872E-01  1.00000000E+00
 -1.18821601E-07 -2.17765017E-04 -3.18626778E-04 -5.34354345E-05  4.82245710E-04
 -9.70002552E-03 -1.51934801E-02 -3.13047437E-03  2.82519990E-02 -3.06903593E-02
 -1.10853285E-03 -6.07855169E-03  5.48578955E-02 -1.35750946E-04 -2.91172746E-05
 -2.68941590E-04 -3.16197348E-05  2.85362730E-04  4.65993667E-05 -8.12462322E-06
 -1.43080483E-03  6.20655379E-04 -3.58731633E-04  3.23749100E-03 -1.22239688E-02
  2.27991720E-02 -3.96029046E-03  3.57409370E-02 -1.35948076E-02  6.12116612E-02
 -2.69293438E-03  2.43032675E-02 -1.88367179E-05 -3.49053505E-04 -3.23490820E-03
  7.27690183E-05 -6.56727815E-04  5.60739820E-04 -1.68713141E-16  0.00000000E+00
  1.00000000E+00 -1.70266961E-08 -3.12049216E-05 -5.34354345E-05  4.66178207E-05
  6.91040270E-05 -1.38997779E-03 -3.13047437E-03  6.20409746E-03  4.04840698E-03
 -4.39781499E-03 -6.07855169E-03  4.04398927E-02  7.86093357E-03 -2.45491430E-05
  9.24136695E-07 -3.85383353E-05  2.56379492E-05  4.65993667E-05 -3.31556307E-05
 -4.22391023E-06 -7.43861098E-04 -3.58731633E-04  1.12416891E-03  1.68313914E-03
 -6.35511893E-03 -3.96029046E-03  2.83578115E-02  1.85813551E-02 -7.06780428E-03
 -2.69293438E-03  6.49914474E-02  1.26350253E-02 -2.31819870E-04  4.05574278E-05
 -1.68179637E-03  3.07716168E-04  5.60739820E-04 -1.44377880E-03 -4.09746431E-17
 -4.63456232E-17  0.00000000E+00  1.00000000E+00  1.53663037E-07  2.81619112E-04
  4.82245710E-04  6.91040270E-05 -5.69377173E-04  1.25443132E-02  2.82519990E-02
  4.04840698E-03 -2.98835018E-02  3.96895326E-02  5.48578955E-02  7.86093357E-03
 -2.96326621E-02  2.21551842E-04  3.76551805E-05  3.01806567E-04  4.65993667E-05
 -3.89749950E-04 -5.58497266E-05  3.81200599E-05  6.71321786E-03  3.23749100E-03
  1.68313914E-03 -1.38793700E-02  5.73538501E-02  3.57409370E-02  1.85813551E-02
 -1.37276792E-01  6.37857123E-02  2.43032675E-02  1.26350253E-02 -4.76374431E-02
  2.09213426E-03  1.63773017E-03  1.31741677E-02  5.60739820E-04 -4.69073078E-03
 -2.43866395E-03  5.33255240E-17  2.66627094E-16  0.00000000E+00 -2.03288213E-32
  1.00000000E+00  7.40560641E-04  1.09236447E-02  9.70002552E-03  1.38997779E-03
 -1.25443132E-02  5.71230613E-02  8.32889773E-02  1.19350025E-02 -1.07711368E-01
  2.23604574E-01  2.63761560E-01  3.77960562E-02 -3.41102981E-01  9.69693851E-03
  5.65599444E-03  1.24711570E-02  1.02397419E-03 -9.24119295E-03 -1.32422878E-03
  4.91086169E-03  4.82326692E-02  1.22239688E-02  6.35511893E-03 -5.73538501E-02
  1.52539766E-01  6.13031557E-02  3.18708966E-02 -2.87629334E-01  3.35209747E-01
  1.08986111E-01  5.66607876E-02 -5.11353816E-01  2.98045142E-02  2.86461350E-02
  6.31631583E-02  1.42945316E-03 -1.29005678E-02 -6.70687596E-03  1.84261053E-01
  8.12273068E-01  0.00000000E+00  4.44780245E-17  1.31956892E-17  1.00000000E+00
 -2.07907532E-03 -2.41200756E-02 -1.51934801E-02 -3.13047437E-03  2.82519990E-02
 -8.32889773E-02 -6.43174495E-02 -1.74019761E-02  1.57049876E-01 -1.34391711E-01
  2.23716785E-02 -2.27163360E-02  2.05011070E-01 -1.76934834E-02 -1.36210083E-02
 -3.00335749E-02 -1.76369425E-03  1.59170407E-02  3.18906451E-03 -3.80240718E-03
 -2.92560635E-02  2.27991720E-02 -3.96029046E-03  3.57409370E-02 -6.13031557E-02
  1.27903063E-01 -1.28083751E-02  1.15593371E-01 -5.55305706E-02  2.53134034E-01
 -9.38637939E-03  8.47104520E-02 -1.18836140E-02 -1.90147236E-02 -4.19264238E-02
  2.60804585E-03 -2.35371631E-02  4.45188827E-03 -2.32569778E-17  0.00000000E+00
  5.69754058E-01  0.00000000E+00  0.00000000E+00  0.00000000E+00  1.00000000E+00
 -2.97923806E-04 -3.45631763E-03 -3.13047437E-03  6.20409746E-03  4.04840698E-03
 -1.19350025E-02 -1.74019761E-02  5.46294225E-02  2.25046664E-02 -1.92578352E-02
 -2.27163360E-02  1.77643534E-01  2.93773283E-02 -3.34633879E-03 -1.14091207E-03
 -4.30370022E-03  4.54755843E-03  3.18906451E-03 -5.88101516E-03 -1.97683341E-03
 -1.52099344E-02 -3.96029046E-03  2.83578115E-02  1.85813551E-02 -3.18708966E-02
 -1.28083751E-02  1.45880820E-01  6.00958360E-02 -2.88697874E-02 -9.38637939E-03
  2.66308699E-01  4.40401155E-02 -1.02853122E-02 -5.77842397E-03 -2.17971278E-02
  6.34832301E-03  4.45188827E-03 -2.97858063E-02 -8.32612297E-18  4.17014751E-17
  0.00000000E+00  5.69754058E-01 -6.01753165E-34 -4.56022536E-17  0.00000000E+00
  1.00000000E+00  2.68871169E-03  3.11926790E-02  2.82519990E-02  4.04840698E-03
 -2.98835018E-02  1.07711368E-01  1.57049876E-01  2.25046664E-02 -1.45977727E-01
  1.73798688E-01  2.05011070E-01  2.93773283E-02 -8.42266921E-02  3.02001386E-02
  1.76150252E-02  3.15216750E-02  3.18906451E-03 -2.38798409E-02 -3.42189289E-03
  1.78405799E-02  1.37267029E-01  3.57409370E-02  1.85813551E-02 -1.37276792E-01
  2.87629334E-01  1.15593371E-01  6.00958360E-02 -3.89814769E-01  2.60544843E-01
  8.47104520E-02  4.40401155E-02 -1.26265849E-01  9.28231655E-02  8.92155096E-02
  1.59649079E-01  4.45188827E-03 -3.33359058E-02 -1.73310035E-02  3.11027978E-17
 -3.34182319E-18  0.00000000E+00 -6.01753165E-34  5.69754058E-01  0.00000000E+00
  0.00000000E+00  0.00000000E+00  1.00000000E+00  1.60110063E-02  1.02262325E-01
  3.06903593E-02  4.39781499E-03 -3.96895326E-02  2.23604574E-01  1.34391711E-01
  1.92578352E-02 -1.73798688E-01  4.75614870E-01  3.53339719E-01  5.06322751E-02
 -4.56947674E-01  8.35878026E-02  7.91509639E-02  8.66338135E-02  1.12429378E-03
 -1.01465602E-02 -1.45396455E-03  2.65316368E-02  1.63595015E-01  1.35948076E-02
  7.06780428E-03 -6.37857123E-02  3.35209747E-01  5.55305706E-02  2.88697874E-02
 -2.60544843E-01  6.13758919E-01  1.25677794E-01  6.53386264E-02 -5.89669812E-01
  1.28771530E-01  1.28364269E-01  1.40499695E-01  5.02564278E-04 -4.53555576E-03
 -2.35799001E-03  6.97718343E-02  4.02090587E-01  1.12974096E-16  1.41217620E-17
 -5.64870481E-17  7.27666104E-01  0.00000000E+00 -3.31832142E-17  0.00000000E+00
  1.00000000E+00 -2.35595908E-02 -1.39995847E-01 -1.10853285E-03 -6.07855169E-03