Jobname.Temp
SP        R                             6-31+G(d)           
Number of atoms                            I               18
Charge                                     I                0
Multiplicity                               I                1
Number of electrons                        I               64
Number of alpha electrons                  I               32
Number of beta electrons                   I               32
Atomic numbers                             I   N=          18
           1           6           6           6           6           6
           1           1           1           1           1           6
           1           6           1           1           6           7
Current cartesian coordinates              R   N=          54
 -4.88554297E+00 -4.95125252E-01  2.04710819E+00 -3.17320354E+00  6.12171109E-01
  1.71565211E+00 -7.57997495E-01 -1.00473337E+00  1.86346271E+00 -1.09886818E+00
 -2.68233206E+00 -4.36606103E-01 -2.30540540E+00 -1.31755863E+00 -2.18968991E+00
 -2.77794087E+00  1.28840582E+00 -1.08972002E+00 -3.14893568E+00  2.25774651E+00
  2.97567236E+00 -3.39861574E-01 -1.94835110E+00  3.64815975E+00 -2.79724820E-01
 -4.54740482E+00 -6.52291884E-01 -2.68240009E+00 -1.85252876E+00 -4.13244742E+00
 -4.24091014E+00  2.41866992E+00 -2.00428888E+00  1.25019178E+00  1.06188435E+00
  1.12478956E+00  1.64174681E+00  2.25004021E+00  2.77288207E+00 -1.51378401E-01
  2.61899600E+00 -9.62898609E-01 -3.45823660E-01  4.59262219E+00 -3.77994358E-01
  8.36914347E-01  2.57743148E+00 -2.77355103E+00  3.65743641E+00 -7.31135038E-03
  2.89403997E-01  5.55992764E+00 -8.62667535E-01 -3.76068727E-01
Nuclear charges                            R   N=          18
  1.00000000E+00  6.00000000E+00  6.00000000E+00  6.00000000E+00  6.00000000E+00
  6.00000000E+00  1.00000000E+00  1.00000000E+00  1.00000000E+00  1.00000000E+00
  1.00000000E+00  6.00000000E+00  1.00000000E+00  6.00000000E+00  1.00000000E+00
  1.00000000E+00  6.00000000E+00  7.00000000E+00
Number of basis functions                  I              189
Number of contracted shells                I               63
Number of primitive shells                 I              144
Highest angular momentum                   I                2
Largest degree of contraction              I                6
Shell types                                I   N=          63
           0           0           0          -1          -1          -1
           2           0          -1          -1          -1           2
           0          -1          -1          -1           2           0
          -1          -1          -1           2           0          -1
          -1          -1           2           0           0           0
           0           0           0           0           0           0
           0           0          -1          -1          -1           2
           0           0           0          -1          -1          -1
           2           0           0           0           0           0
          -1          -1          -1           2           0          -1
          -1          -1           2
Number of primitives per shell             I   N=          63
           3           1           6           3           1           1
           1           6           3           1           1           1
           6           3           1           1           1           6
           3           1           1           1           6           3
           1           1           1           3           1           3
           1           3           1           3           1           3
           1           6           3           1           1           1
           3           1           6           3           1           1
           1           3           1           3           1           6
           3           1           1           1           6           3
           1           1           1
Shell to atom map                          I   N=          63
           1           1           2           2           2           2
           2           3           3           3           3           3
           4           4           4           4           4           5
           5           5           5           5           6           6
           6           6           6           7           7           8
           8           9           9          10          10          11
          11          12          12          12          12          12
          13          13          14          14          14          14
          14          15          15          16          16          17
          17          17          17          17          18          18
          18          18          18
Primitive exponents                        R   N=         144
  1.87311370E+01  2.82539370E+00  6.40121700E-01  1.61277800E-01  3.04752490E+03
  4.57369510E+02  1.03948690E+02  2.92101550E+01  9.28666300E+00  3.16392700E+00
  7.86827240E+00  1.88128850E+00  5.44249300E-01  1.68714400E-01  4.38000000E-02
  8.00000000E-01  3.04752490E+03  4.57369510E+02  1.03948690E+02  2.92101550E+01
  9.28666300E+00  3.16392700E+00  7.86827240E+00  1.88128850E+00  5.44249300E-01
  1.68714400E-01  4.38000000E-02  8.00000000E-01  3.04752490E+03  4.57369510E+02
  1.03948690E+02  2.92101550E+01  9.28666300E+00  3.16392700E+00  7.86827240E+00
  1.88128850E+00  5.44249300E-01  1.68714400E-01  4.38000000E-02  8.00000000E-01
  3.04752490E+03  4.57369510E+02  1.03948690E+02  2.92101550E+01  9.28666300E+00
  3.16392700E+00  7.86827240E+00  1.88128850E+00  5.44249300E-01  1.68714400E-01
  4.38000000E-02  8.00000000E-01  3.04752490E+03  4.57369510E+02  1.03948690E+02
  2.92101550E+01  9.28666300E+00  3.16392700E+00  7.86827240E+00  1.88128850E+00
  5.44249300E-01  1.68714400E-01  4.38000000E-02  8.00000000E-01  1.87311370E+01
  2.82539370E+00  6.40121700E-01  1.61277800E-01  1.87311370E+01  2.82539370E+00
  6.40121700E-01  1.61277800E-01  1.87311370E+01  2.82539370E+00  6.40121700E-01
  1.61277800E-01  1.87311370E+01  2.82539370E+00  6.40121700E-01  1.61277800E-01
  1.87311370E+01  2.82539370E+00  6.40121700E-01  1.61277800E-01  3.04752490E+03
  4.57369510E+02  1.03948690E+02  2.92101550E+01  9.28666300E+00  3.16392700E+00
  7.86827240E+00  1.88128850E+00  5.44249300E-01  1.68714400E-01  4.38000000E-02
  8.00000000E-01  1.87311370E+01  2.82539370E+00  6.40121700E-01  1.61277800E-01
  3.04752490E+03  4.57369510E+02  1.03948690E+02  2.92101550E+01  9.28666300E+00
  3.16392700E+00  7.86827240E+00  1.88128850E+00  5.44249300E-01  1.68714400E-01
  4.38000000E-02  8.00000000E-01  1.87311370E+01  2.82539370E+00  6.40121700E-01
  1.61277800E-01  1.87311370E+01  2.82539370E+00  6.40121700E-01  1.61277800E-01
  3.04752490E+03  4.57369510E+02  1.03948690E+02  2.92101550E+01  9.28666300E+00
  3.16392700E+00  7.86827240E+00  1.88128850E+00  5.44249300E-01  1.68714400E-01
  4.38000000E-02  8.00000000E-01  4.17351100E+03  6.27457900E+02  1.42902100E+02
  4.02343300E+01  1.28202100E+01  4.39043700E+00  1.16263580E+01  2.71628000E+00
  7.72218000E-01  2.12031300E-01  6.39000000E-02  8.00000000E-01
Contraction coefficients                   R   N=         144
  3.34945995E-02  2.34726947E-01  8.13757318E-01  1.00000000E+00  1.83470016E-03
  1.40373012E-02  6.88426061E-02  2.32184421E-01  4.67941342E-01  3.62312032E-01
 -1.19332409E-01 -1.60854212E-01  1.14345648E+00  1.00000000E+00  1.00000000E+00
  1.00000000E+00  1.83470016E-03  1.40373012E-02  6.88426061E-02  2.32184421E-01
  4.67941342E-01  3.62312032E-01 -1.19332409E-01 -1.60854212E-01  1.14345648E+00
  1.00000000E+00  1.00000000E+00  1.00000000E+00  1.83470016E-03  1.40373012E-02
  6.88426061E-02  2.32184421E-01  4.67941342E-01  3.62312032E-01 -1.19332409E-01
 -1.60854212E-01  1.14345648E+00  1.00000000E+00  1.00000000E+00  1.00000000E+00
  1.83470016E-03  1.40373012E-02  6.88426061E-02  2.32184421E-01  4.67941342E-01
  3.62312032E-01 -1.19332409E-01 -1.60854212E-01  1.14345648E+00  1.00000000E+00
  1.00000000E+00  1.00000000E+00  1.83470016E-03  1.40373012E-02  6.88426061E-02
  2.32184421E-01  4.67941342E-01  3.62312032E-01 -1.19332409E-01 -1.60854212E-01
  1.14345648E+00  1.00000000E+00  1.00000000E+00  1.00000000E+00  3.34945995E-02
  2.34726947E-01  8.13757318E-01  1.00000000E+00  3.34945995E-02  2.34726947E-01
  8.13757318E-01  1.00000000E+00  3.34945995E-02  2.34726947E-01  8.13757318E-01
  1.00000000E+00  3.34945995E-02  2.34726947E-01  8.13757318E-01  1.00000000E+00
  3.34945995E-02  2.34726947E-01  8.13757318E-01  1.00000000E+00  1.83470016E-03
  1.40373012E-02  6.88426061E-02  2.32184421E-01  4.67941342E-01  3.62312032E-01
 -1.19332409E-01 -1.60854212E-01  1.14345648E+00  1.00000000E+00  1.00000000E+00
  1.00000000E+00  3.34945995E-02  2.34726947E-01  8.13757318E-01  1.00000000E+00
  1.83470016E-03  1.40373012E-02  6.88426061E-02  2.32184421E-01  4.67941342E-01
  3.62312032E-01 -1.19332409E-01 -1.60854212E-01  1.14345648E+00  1.00000000E+00
  1.00000000E+00  1.00000000E+00  3.34945995E-02  2.34726947E-01  8.13757318E-01
  1.00000000E+00  3.34945995E-02  2.34726947E-01  8.13757318E-01  1.00000000E+00
  1.83470016E-03  1.40373012E-02  6.88426061E-02  2.32184421E-01  4.67941342E-01
  3.62312032E-01 -1.19332409E-01 -1.60854212E-01  1.14345648E+00  1.00000000E+00
  1.00000000E+00  1.00000000E+00  1.83479944E-03  1.39949958E-02  6.85869792E-02
  2.32240930E-01  4.69069858E-01  3.60454891E-01 -1.14961023E-01 -1.69118034E-01
  1.14585223E+00  1.00000000E+00  1.00000000E+00  1.00000000E+00
P(S=P) Contraction coefficients            R   N=         144
  0.00000000E+00  0.00000000E+00  0.00000000E+00  0.00000000E+00  0.00000000E+00
  0.00000000E+00  0.00000000E+00  0.00000000E+00  0.00000000E+00  0.00000000E+00
  6.89990956E-02  3.16423980E-01  7.44308252E-01  1.00000000E+00  1.00000000E+00
  0.00000000E+00  0.00000000E+00  0.00000000E+00  0.00000000E+00  0.00000000E+00
  0.00000000E+00  0.00000000E+00  6.89990956E-02  3.16423980E-01  7.44308252E-01
  1.00000000E+00  1.00000000E+00  0.00000000E+00  0.00000000E+00  0.00000000E+00
  0.00000000E+00  0.00000000E+00  0.00000000E+00  0.00000000E+00  6.89990956E-02
  3.16423980E-01  7.44308252E-01  1.00000000E+00  1.00000000E+00  0.00000000E+00
  0.00000000E+00  0.00000000E+00  0.00000000E+00  0.00000000E+00  0.00000000E+00
  0.00000000E+00  6.89990956E-02  3.16423980E-01  7.44308252E-01  1.00000000E+00
  1.00000000E+00  0.00000000E+00  0.00000000E+00  0.00000000E+00  0.00000000E+00
  0.00000000E+00  0.00000000E+00  0.00000000E+00  6.89990956E-02  3.16423980E-01
  7.44308252E-01  1.00000000E+00  1.00000000E+00  0.00000000E+00  0.00000000E+00
  0.00000000E+00  0.00000000E+00  0.00000000E+00  0.00000000E+00  0.00000000E+00
  0.00000000E+00  0.00000000E+00  0.00000000E+00  0.00000000E+00  0.00000000E+00
  0.00000000E+00  0.00000000E+00  0.00000000E+00  0.00000000E+00  0.00000000E+00
  0.00000000E+00  0.00000000E+00  0.00000000E+00  0.00000000E+00  0.00000000E+00
  0.00000000E+00  0.00000000E+00  0.00000000E+00  0.00000000E+00  0.00000000E+00
  6.89990956E-02  3.16423980E-01  7.44308252E-01  1.00000000E+00  1.00000000E+00
  0.00000000E+00  0.00000000E+00  0.00000000E+00  0.00000000E+00  0.00000000E+00
  0.00000000E+00  0.00000000E+00  0.00000000E+00  0.00000000E+00  0.00000000E+00
  0.00000000E+00  6.89990956E-02  3.16423980E-01  7.44308252E-01  1.00000000E+00
  1.00000000E+00  0.00000000E+00  0.00000000E+00  0.00000000E+00  0.00000000E+00
  0.00000000E+00  0.00000000E+00  0.00000000E+00  0.00000000E+00  0.00000000E+00
  0.00000000E+00  0.00000000E+00  0.00000000E+00  0.00000000E+00  0.00000000E+00
  0.00000000E+00  6.89990956E-02  3.16423980E-01  7.44308252E-01  1.00000000E+00
  1.00000000E+00  0.00000000E+00  0.00000000E+00  0.00000000E+00  0.00000000E+00
  0.00000000E+00  0.00000000E+00  0.00000000E+00  6.75800232E-02  3.23907111E-01
  7.40895255E-01  1.00000000E+00  1.00000000E+00  0.00000000E+00
Coordinates of each shell                  R   N=         189
 -4.88554297E+00 -4.95125252E-01  2.04710819E+00 -4.88554297E+00 -4.95125252E-01
  2.04710819E+00 -3.17320354E+00  6.12171109E-01  1.71565211E+00 -3.17320354E+00
  6.12171109E-01  1.71565211E+00 -3.17320354E+00  6.12171109E-01  1.71565211E+00
 -3.17320354E+00  6.12171109E-01  1.71565211E+00 -3.17320354E+00  6.12171109E-01
  1.71565211E+00 -7.57997495E-01 -1.00473337E+00  1.86346271E+00 -7.57997495E-01
 -1.00473337E+00  1.86346271E+00 -7.57997495E-01 -1.00473337E+00  1.86346271E+00
 -7.57997495E-01 -1.00473337E+00  1.86346271E+00 -7.57997495E-01 -1.00473337E+00
  1.86346271E+00 -1.09886818E+00 -2.68233206E+00 -4.36606103E-01 -1.09886818E+00
 -2.68233206E+00 -4.36606103E-01 -1.09886818E+00 -2.68233206E+00 -4.36606103E-01
 -1.09886818E+00 -2.68233206E+00 -4.36606103E-01 -1.09886818E+00 -2.68233206E+00
 -4.36606103E-01 -2.30540540E+00 -1.31755863E+00 -2.18968991E+00 -2.30540540E+00
 -1.31755863E+00 -2.18968991E+00 -2.30540540E+00 -1.31755863E+00 -2.18968991E+00
 -2.30540540E+00 -1.31755863E+00 -2.18968991E+00 -2.30540540E+00 -1.31755863E+00
 -2.18968991E+00 -2.77794087E+00  1.28840582E+00 -1.08972002E+00 -2.77794087E+00
  1.28840582E+00 -1.08972002E+00 -2.77794087E+00  1.28840582E+00 -1.08972002E+00
 -2.77794087E+00  1.28840582E+00 -1.08972002E+00 -2.77794087E+00  1.28840582E+00
 -1.08972002E+00 -3.14893568E+00  2.25774651E+00  2.97567236E+00 -3.14893568E+00
  2.25774651E+00  2.97567236E+00 -3.39861574E-01 -1.94835110E+00  3.64815975E+00
 -3.39861574E-01 -1.94835110E+00  3.64815975E+00 -2.79724820E-01 -4.54740482E+00
 -6.52291884E-01 -2.79724820E-01 -4.54740482E+00 -6.52291884E-01 -2.68240009E+00
 -1.85252876E+00 -4.13244742E+00 -2.68240009E+00 -1.85252876E+00 -4.13244742E+00
 -4.24091014E+00  2.41866992E+00 -2.00428888E+00 -4.24091014E+00  2.41866992E+00
 -2.00428888E+00  1.25019178E+00  1.06188435E+00  1.12478956E+00  1.25019178E+00
  1.06188435E+00  1.12478956E+00  1.25019178E+00  1.06188435E+00  1.12478956E+00
  1.25019178E+00  1.06188435E+00  1.12478956E+00  1.25019178E+00  1.06188435E+00
  1.12478956E+00  1.64174681E+00  2.25004021E+00  2.77288207E+00  1.64174681E+00
  2.25004021E+00  2.77288207E+00 -1.51378401E-01  2.61899600E+00 -9.62898609E-01
 -1.51378401E-01  2.61899600E+00 -9.62898609E-01 -1.51378401E-01  2.61899600E+00
 -9.62898609E-01 -1.51378401E-01  2.61899600E+00 -9.62898609E-01 -1.51378401E-01
  2.61899600E+00 -9.62898609E-01 -3.45823660E-01  4.59262219E+00 -3.77994358E-01
 -3.45823660E-01  4.59262219E+00 -3.77994358E-01  8.36914347E-01  2.57743148E+00
 -2.77355103E+00  8.36914347E-01  2.57743148E+00 -2.77355103E+00  3.65743641E+00
 -7.31135038E-03  2.89403997E-01  3.65743641E+00 -7.31135038E-03  2.89403997E-01
  3.65743641E+00 -7.31135038E-03  2.89403997E-01  3.65743641E+00 -7.31135038E-03
  2.89403997E-01  3.65743641E+00 -7.31135038E-03  2.89403997E-01  5.55992764E+00
 -8.62667535E-01 -3.76068727E-01  5.55992764E+00 -8.62667535E-01 -3.76068727E-01
  5.55992764E+00 -8.62667535E-01 -3.76068727E-01  5.55992764E+00 -8.62667535E-01
 -3.76068727E-01  5.55992764E+00 -8.62667535E-01 -3.76068727E-01
Overlap Matrix                             R   N=       17955
  1.00000000E+00  6.58292049E-01  1.00000000E+00  3.22754032E-02  9.18397586E-02
  1.00000000E+00  2.71648124E-01  4.74672515E-01  2.19058872E-01  1.00000000E+00
 -3.04429113E-01 -2.20215631E-01  6.45202179E-17  4.77463947E-17  1.00000000E+00
 -1.96861232E-01 -1.42403990E-01 -5.08090316E-17 -1.54917044E-16  0.00000000E+00
  1.00000000E+00  5.89280821E-02  4.26269507E-02 -4.33509075E-19 -1.71766092E-16
  0.00000000E+00  4.83052716E-32  1.00000000E+00  3.75743233E-01  7.03062135E-01
  1.84261053E-01  8.12273068E-01 -2.25137253E-16  0.00000000E+00  0.00000000E+00
  1.00000000E+00 -4.26657112E-01 -4.83348696E-01 -4.97641114E-18 -3.50840802E-16
  5.69754058E-01  0.00000000E+00  0.00000000E+00  0.00000000E+00  1.00000000E+00
 -2.75900829E-01 -3.12560842E-01 -4.57014167E-18  0.00000000E+00  0.00000000E+00
  5.69754058E-01  0.00000000E+00  0.00000000E+00  0.00000000E+00  1.00000000E+00
  8.25876509E-02  9.35613923E-02 -1.18957340E-17  0.00000000E+00  0.00000000E+00
  0.00000000E+00  5.69754058E-01  0.00000000E+00  0.00000000E+00  0.00000000E+00
  1.00000000E+00  2.58612585E-01  6.40627652E-01  6.97718343E-02  4.02090587E-01
 -1.22800804E-16  2.82435241E-17  9.27898290E-17  7.27666104E-01  0.00000000E+00
  0.00000000E+00  0.00000000E+00  1.00000000E+00 -1.74351070E-01 -3.61092550E-01
 -8.80061479E-18 -8.57484264E-17  1.64678564E-01 -1.15413425E-32 -1.72479564E-32
  0.00000000E+00  5.88690339E-01  0.00000000E+00  0.00000000E+00  0.00000000E+00
  1.00000000E+00 -1.12745349E-01 -2.33503043E-01  2.66510725E-20  2.17541075E-17
 -1.15413425E-32  1.64678564E-01  4.31198911E-33  0.00000000E+00  0.00000000E+00
  5.88690339E-01  0.00000000E+00  0.00000000E+00  0.00000000E+00  1.00000000E+00
  3.37489870E-02  6.98963750E-02  7.70168578E-18  4.04394553E-17 -1.72479564E-32
  4.31198911E-33  1.64678564E-01  0.00000000E+00  0.00000000E+00  0.00000000E+00
  5.88690339E-01  0.00000000E+00  0.00000000E+00  0.00000000E+00  1.00000000E+00
  3.48034467E-01  4.05651302E-01  7.91027073E-02  7.10235064E-01 -9.53806495E-16
  0.00000000E+00  2.21128098E-16  6.29936196E-01  0.00000000E+00 -5.74530204E-17
  0.00000000E+00  3.23540475E-01 -1.80421025E-16  0.00000000E+00  3.00701709E-17
  1.00000000E+00  2.13342413E-01  3.73329125E-01  7.91027073E-02  7.10235064E-01
 -3.17935498E-16  0.00000000E+00  2.21128098E-16  6.29936196E-01  0.00000000E+00
 -1.72359061E-16  0.00000000E+00  3.23540475E-01 -6.01403417E-17  0.00000000E+00
  3.00701709E-17  3.33333333E-01  1.00000000E+00  1.25212960E-01  3.52180619E-01
  7.91027073E-02  7.10235064E-01 -3.17935498E-16  0.00000000E+00  6.63384294E-16
  6.29936196E-01  0.00000000E+00 -5.74530204E-17  0.00000000E+00  3.23540475E-01
 -6.01403417E-17  0.00000000E+00  9.02105126E-17  3.33333333E-01  3.33333333E-01
  1.00000000E+00  2.59284785E-01  6.22208094E-02 -4.19534590E-32  0.00000000E+00
  0.00000000E+00 -5.50680436E-16  0.00000000E+00  0.00000000E+00 -9.95115504E-17
  0.00000000E+00  0.00000000E+00  0.00000000E+00  0.00000000E+00 -1.04166127E-16
  0.00000000E+00  0.00000000E+00  0.00000000E+00  0.00000000E+00  1.00000000E+00
 -7.76138344E-02 -1.86250636E-02 -1.66128728E-31 -3.50970998E-31  3.83005101E-16
  0.00000000E+00 -5.50680436E-16  0.00000000E+00  0.00000000E+00  0.00000000E+00
  0.00000000E+00 -9.32543738E-32  5.20830637E-17  0.00000000E+00 -1.04166127E-16
 -5.46538867E-31 -1.82179622E-31 -5.46538867E-31  0.00000000E+00  1.00000000E+00
 -5.01895332E-02 -1.20440287E-02  4.15321821E-32  0.00000000E+00  0.00000000E+00
  3.83005101E-16  0.00000000E+00  0.00000000E+00  0.00000000E+00  0.00000000E+00
 -9.95115504E-17  0.00000000E+00  0.00000000E+00  5.20830637E-17  0.00000000E+00
  0.00000000E+00  0.00000000E+00  0.00000000E+00 -3.15544362E-31  0.00000000E+00
  1.00000000E+00  2.34806504E-05  1.20153724E-02  1.99797488E-07  7.40151173E-03
  1.52610578E-02 -1.02167981E-02  9.33976659E-04  4.64557861E-02  8.88576905E-02
 -5.94874286E-02  5.43809021E-03  4.83198673E-02  4.83771581E-02 -3.23869856E-02
  2.96068184E-03  1.23008900E-02  5.68260183E-03  3.52071723E-04 -1.39073836E-02
  1.27135445E-03 -8.51131809E-04  1.00000000E+00  5.69293066E-03  9.58951534E-02
  7.40151173E-03  1.21360050E-01  1.54625783E-01 -1.03517097E-01  9.46309712E-03
  2.78876630E-01  4.15035814E-01 -2.77853422E-01  2.54001897E-02  2.85719772E-01
  2.66046555E-01 -1.78109800E-01  1.62820479E-02  1.67797369E-01  1.02113726E-01
  4.92105237E-02 -1.38024758E-01  1.26176422E-02 -8.44711451E-03  2.19058872E-01
  1.00000000E+00 -1.24871173E-02 -1.01185232E-01 -1.52610578E-02 -1.54625783E-01
 -1.54647917E-01  1.46336467E-01 -1.33774635E-02 -1.84944826E-01 -9.98040963E-02
  1.91623610E-01 -1.75174234E-02 -5.89401624E-02  6.11624618E-02  3.71175587E-02
 -3.39313091E-03 -1.69662805E-01 -1.59333443E-01 -7.02962487E-02  1.74194727E-01
 -1.59241483E-02  1.42166702E-02  6.05695233E-17  6.80820066E-18  1.00000000E+00
  1.54172409E-03  1.24928521E-02  1.02167981E-02  1.03517097E-01  1.46336467E-01
 -3.40295547E-02  8.95579103E-03  1.23814744E-01  1.91623610E-01  5.81423574E-02
  1.17273639E-02  3.94585847E-02  3.71175587E-02  9.17567439E-02  2.27159441E-03
  1.80676429E-01  3.95762099E-02  4.70611272E-02 -6.87256015E-02  1.42166702E-02
 -4.20600647E-03 -4.38138706E-17  1.71766092E-16  0.00000000E+00  1.00000000E+00
  5.55585058E-04  4.50200005E-03 -9.33976659E-04 -9.46309712E-03 -1.33774635E-02
  8.95579103E-03  6.31194057E-02 -1.13186224E-02 -1.75174234E-02  1.17273639E-02
  1.85356270E-01 -3.60713764E-03 -3.39313091E-03  2.27159441E-03  1.16398122E-01
 -1.65166783E-02 -9.75120594E-03  1.83118543E-03  1.42166702E-02  8.54913435E-02
 -5.72337652E-02 -1.52441241E-17  2.31516876E-16 -1.09263362E-32 -1.80423511E-31
  1.00000000E+00  6.37430398E-02  2.39464314E-01  4.64557861E-02  2.78876630E-01
  1.84944826E-01 -1.23814744E-01  1.13186224E-02  4.89456863E-01  4.85561994E-01
 -3.25068481E-01  2.97163916E-02  5.42038515E-01  4.35025959E-01 -2.91236195E-01
  2.66235865E-02  2.59907588E-01  2.23293854E-01  1.93804262E-01 -7.69385131E-02
  7.03339487E-03 -4.70863662E-03  1.84261053E-01  8.12273068E-01 -9.55538935E-17
  0.00000000E+00  1.91107787E-16  1.00000000E+00 -1.73559956E-01 -3.96834714E-01
 -8.88576905E-02 -4.15035814E-01 -9.98040963E-02  1.91623610E-01 -1.75174234E-02
 -4.85561994E-01  7.75874524E-03  3.22481737E-01 -2.94799224E-02 -2.21654296E-01
  2.60621510E-01  1.19094404E-01 -1.08871089E-02 -2.92098322E-01 -3.65873757E-01
 -3.17554166E-01  4.85104240E-02 -4.43461868E-03  7.71524401E-03  5.80461130E-18
 -8.17320385E-17  5.69754058E-01  0.00000000E+00 -1.74298916E-32  0.00000000E+00
  1.00000000E+00  2.14286099E-02  4.89952664E-02  5.94874286E-02  2.77853422E-01
  1.91623610E-01  5.81423574E-02  1.17273639E-02  3.25068481E-01  3.22481737E-01
  2.73565484E-01  1.97358807E-02  1.48390579E-01  1.19094404E-01  3.58785504E-01
  7.28857693E-03  2.85104206E-01  1.55387403E-01  2.12592525E-01  3.14493346E-02
  7.71524401E-03  1.92469912E-03  0.00000000E+00  0.00000000E+00  0.00000000E+00
  5.69754058E-01  0.00000000E+00  0.00000000E+00  0.00000000E+00  1.00000000E+00
  7.72214401E-03  1.76562317E-02 -5.43809021E-03 -2.54001897E-02 -1.75174234E-02
  1.17273639E-02  1.85356270E-01 -2.97163916E-02 -2.94799224E-02  1.97358807E-02
  4.87652692E-01 -1.35652418E-02 -1.08871089E-02  7.28857693E-03  4.37849170E-01
 -2.60630259E-02 -2.23914721E-02 -1.12477033E-02  7.71524401E-03  1.15141320E-01
 -7.70834920E-02 -9.40692101E-18  1.63464077E-16 -1.74298916E-32  0.00000000E+00
  5.69754058E-01  0.00000000E+00  0.00000000E+00  0.00000000E+00  1.00000000E+00
  1.50990597E-01  4.08513269E-01  4.83198673E-02  2.85719772E-01  5.89401624E-02
 -3.94585847E-02  3.60713764E-03  5.42038515E-01  2.21654296E-01 -1.48390579E-01
  1.35652418E-02  8.30704687E-01  4.19892293E-01 -2.81104682E-01  2.56974062E-02
  2.33643653E-01  2.30312284E-01  2.27629118E-01 -7.00039499E-03  6.39946631E-04
 -4.28424139E-04  6.97718343E-02  4.02090587E-01 -2.82435241E-17 -9.27898290E-17
  5.64870481E-17  7.27666104E-01  0.00000000E+00  0.00000000E+00  0.00000000E+00
  1.00000000E+00 -2.45342284E-01 -5.55035837E-01 -4.83771581E-02 -2.66046555E-01
  6.11624618E-02  3.71175587E-02 -3.39313091E-03 -4.35025959E-01  2.60621510E-01
  1.19094404E-01 -1.08871089E-02 -4.19892293E-01  6.18463754E-01  1.42088628E-01
 -1.29891440E-02 -2.00049427E-01 -2.20743948E-01 -2.18172255E-01 -7.13984774E-03
  6.52694813E-04  4.10625236E-04 -3.01030672E-18 -2.17541075E-17  1.64678564E-01
  4.31198911E-33 -5.99899724E-33  0.00000000E+00  5.88690339E-01  0.00000000E+00
  0.00000000E+00  0.00000000E+00  1.00000000E+00  3.02912274E-02  6.85275953E-02
  3.23869856E-02  1.78109800E-01  3.71175587E-02  9.17567439E-02  2.27159441E-03
  2.91236195E-01  1.19094404E-01  3.58785504E-01  7.28857693E-03  2.81104682E-01
  1.42088628E-01  7.35580820E-01  8.69582334E-03  1.49918721E-01  1.31789207E-01
  1.46059461E-01  1.61953306E-02  4.10625236E-04  9.91154150E-04 -2.19831154E-18
 -4.04394553E-17  4.31198911E-33  1.64678564E-01 -8.62397822E-33  0.00000000E+00
  0.00000000E+00  5.88690339E-01  0.00000000E+00  0.00000000E+00  0.00000000E+00
  1.00000000E+00  1.09159307E-02  2.46950204E-02 -2.96068184E-03 -1.62820479E-02
 -3.39313091E-03  2.27159441E-03  1.16398122E-01 -2.66235865E-02 -1.08871089E-02
  7.28857693E-03  4.37849170E-01 -2.56974062E-02 -1.29891440E-02  8.69582334E-03
  8.29909751E-01 -1.37049381E-02 -1.35095285E-02 -1.18902267E-02  4.10625236E-04
  2.06496345E-02 -1.38242807E-02  9.67977492E-18  4.35082149E-17 -5.99899724E-33
 -8.62397822E-33  1.64678564E-01  0.00000000E+00  0.00000000E+00  0.00000000E+00
  5.88690339E-01  0.00000000E+00  0.00000000E+00  0.00000000E+00  1.00000000E+00
  1.17240429E-02  1.16558226E-01  1.23008900E-02  1.67797369E-01  1.69662805E-01
 -1.80676429E-01  1.65166783E-02  2.59907588E-01  2.92098322E-01 -2.85104206E-01
  2.60630259E-02  2.33643653E-01  2.00049427E-01 -1.49918721E-01  1.37049381E-02
  1.73915590E-01  1.97276537E-01  6.49278171E-02 -2.23426540E-01  2.04247134E-02
 -2.11322707E-02  7.91027073E-02  7.10235064E-01 -8.71892807E-17 -2.21128098E-16
  2.17093936E-16  6.29936196E-01  1.72359061E-16  0.00000000E+00  0.00000000E+00
  3.23540475E-01  0.00000000E+00  0.00000000E+00  0.00000000E+00  1.00000000E+00
  1.25268795E-03  6.14976879E-02  5.68260183E-03  1.02113726E-01  1.59333443E-01
 -3.95762099E-02  9.75120594E-03  2.23293854E-01  3.65873757E-01 -1.55387403E-01
  2.23914721E-02  2.30312284E-01  2.20743948E-01 -1.31789207E-01  1.35095285E-02
  1.97276537E-01  3.59387983E-02  3.54225556E-02 -6.65119072E-02  1.72212661E-02
 -4.07052839E-03  7.91027073E-02  7.10235064E-01 -2.90630936E-17 -6.63384294E-16
  2.17093936E-16  6.29936196E-01  5.74530204E-17  0.00000000E+00  0.00000000E+00
  3.23540475E-01  0.00000000E+00  0.00000000E+00  0.00000000E+00  3.33333333E-01
  1.00000000E+00  1.11164535E-03  6.07560569E-02  3.52071723E-04  4.92105237E-02
  7.02962487E-02 -4.70611272E-02 -1.83118543E-03  1.93804262E-01  3.17554166E-01
 -2.12592525E-01  1.12477033E-02  2.27629118E-01  2.18172255E-01 -1.46059461E-01
  1.18902267E-02  6.49278171E-02  3.54225556E-02  3.33934012E-02 -6.20010770E-02
 -5.47315027E-03  3.66410194E-03  7.91027073E-02  7.10235064E-01 -2.90630936E-17
 -2.21128098E-16  6.51281809E-16  6.29936196E-01  5.74530204E-17  0.00000000E+00
  0.00000000E+00  3.23540475E-01  0.00000000E+00  0.00000000E+00  0.00000000E+00
  3.33333333E-01  3.33333333E-01  1.00000000E+00 -2.27394095E-03 -1.19568493E-02
 -1.39073836E-02 -1.38024758E-01 -1.74194727E-01  6.87256015E-02 -1.42166702E-02
 -7.69385131E-02 -4.85104240E-02 -3.14493346E-02 -7.71524401E-03 -7.00039499E-03
  7.13984774E-03 -1.61953306E-02 -4.10625236E-04 -2.23426540E-01 -6.65119072E-02
 -6.20010770E-02  1.35204830E-01 -2.36835485E-02  1.05312819E-02  2.09500113E-32
 -1.11076346E-32 -3.83005101E-16 -5.03387547E-17  1.33093382E-47  0.00000000E+00
  0.00000000E+00  9.95115504E-17  0.00000000E+00  0.00000000E+00  0.00000000E+00
  0.00000000E+00  0.00000000E+00  0.00000000E+00  0.00000000E+00  0.00000000E+00
  1.00000000E+00 -8.19451172E-04 -4.30884283E-03  1.27135445E-03  1.26176422E-02
  1.59241483E-02 -1.42166702E-02 -8.54913435E-02  7.03339487E-03  4.43461868E-03
 -7.71524401E-03 -1.15141320E-01  6.39946631E-04 -6.52694813E-04 -4.10625236E-04
 -2.06496345E-02  2.04247134E-02  1.72212661E-02 -5.47315027E-03 -2.36835485E-02
 -1.21705153E-01  1.03699530E-01 -4.15054638E-32  1.11076346E-32  3.76017728E-16
  1.33093382E-47 -5.03387547E-17  0.00000000E+00  0.00000000E+00  0.00000000E+00
  9.95115504E-17  0.00000000E+00  0.00000000E+00  0.00000000E+00  0.00000000E+00
  0.00000000E+00  0.00000000E+00  0.00000000E+00  0.00000000E+00  1.00000000E+00
  1.01173680E-04  5.31992023E-04 -8.51131809E-04 -8.44711451E-03 -1.42166702E-02
  4.20600647E-03  5.72337652E-02 -4.70863662E-03 -7.71524401E-03 -1.92469912E-03
  7.70834920E-02 -4.28424139E-04 -4.10625236E-04 -9.91154150E-04  1.38242807E-02
 -2.11322707E-02 -4.07052839E-03  3.66410194E-03  1.05312819E-02  1.03699530E-01
 -3.62304399E-02 -8.30660520E-32 -1.53270230E-31  1.33093382E-47  3.76017728E-16
 -3.83005101E-16  0.00000000E+00  0.00000000E+00  0.00000000E+00  0.00000000E+00
  0.00000000E+00  0.00000000E+00  0.00000000E+00  0.00000000E+00  0.00000000E+00
  0.00000000E+00  0.00000000E+00  0.00000000E+00  0.00000000E+00  1.00000000E+00
  3.09736836E-07  3.48031752E-03  3.33030919E-15  3.25509489E-05  5.67514961E-05
 -9.01339231E-05 -5.88833783E-05  7.37427023E-03  1.21069120E-02 -1.92284530E-02
 -1.25617108E-02  2.95722270E-02  2.54283634E-02 -4.03858631E-02 -2.63835853E-02
  5.15546388E-06  1.26911377E-05  5.53432282E-06 -1.36160681E-05 -8.89520905E-06
  1.41275586E-05  2.96249370E-07  8.34523291E-03 -2.43017576E-03 -1.19601357E-02
 -1.63979235E-02  4.83727041E-02 -1.30586091E-02 -6.42680830E-02 -8.81146449E-02
  4.88437583E-02 -6.90175077E-03 -3.39670395E-02 -4.65704511E-02  6.43498433E-04
  7.20279300E-03  1.32219948E-02  2.40785475E-03  3.30128511E-03  1.62473096E-02
  1.00000000E+00  5.45042635E-04  3.60296446E-02  3.25509489E-05  5.92444895E-03
  6.00028021E-03 -9.52977160E-03 -6.22568204E-03  6.63110019E-02  8.51969479E-02
 -1.35311590E-01 -8.83973897E-02  1.80967728E-01  1.44745514E-01 -2.29887878E-01
 -1.50182910E-01  3.63410851E-03  7.25283771E-03  3.81604153E-03 -6.53861407E-03
 -4.27159579E-03  6.78423853E-03  8.34523291E-03  1.29454713E-01 -2.33646879E-02
 -1.14989559E-01 -1.57656237E-01  2.87789152E-01 -6.04399170E-02 -2.97455691E-01
 -4.07826114E-01  2.88599777E-01 -3.79269069E-02 -1.86657674E-01 -2.55916683E-01
  5.53839466E-02  1.14810335E-01  1.69343551E-01  2.18148630E-02  2.99092305E-02
  1.47198594E-01  2.19058872E-01  1.00000000E+00 -1.07748641E-03 -3.39423586E-02
 -5.67514961E-05 -6.00028021E-03 -3.59638739E-03  9.85902308E-03  6.44077796E-03