Jobname.Temp
SP        R                             6-31+G(d)           
Number of atoms                            I               18
Charge                                     I                0
Multiplicity                               I                1
Number of electrons                        I               64
Number of alpha electrons                  I               32
Number of beta electrons                   I               32
Atomic numbers                             I   N=          18
           1           6           6           6           6           6
           1           1           1           1           1           6
           1           6           1           1           6           7
Current cartesian coordinates              R   N=          54
 -5.47127303E+00 -2.04712141E-01  2.59725848E+00 -3.63729949E+00  2.17509367E-01
  1.71450127E+00 -1.80235275E+00 -1.92101432E+00  2.05541542E+00 -1.15658420E+00
 -2.84835962E+00 -2.27245236E-01 -2.44667566E+00 -1.39356719E+00 -2.19689355E+00
 -3.87210174E+00  4.16754530E-01 -1.10785383E+00 -2.96720639E+00  1.98043865E+00
  2.58245248E+00 -1.15364945E+00 -2.60051637E+00  3.87576403E+00  1.47670758E-01
 -4.38843917E+00 -5.83263968E-01 -2.25182222E+00 -1.73555849E+00 -4.20858449E+00
 -5.06110230E+00  1.78230275E+00 -2.06635127E+00  2.40342361E+00  2.36398124E+00
  8.38909898E-01  2.19910453E+00  2.69376869E+00  2.85410817E+00  1.12670952E+00
  3.71004450E+00 -8.71624837E-01 -1.60713648E-01  5.19521050E+00 -2.86835859E-01
  1.32590366E+00  3.36690047E+00 -2.88214604E+00  4.10366311E+00  3.78054829E-01
  1.28412559E-01  5.48827678E+00 -1.22929897E+00 -4.23680377E-01
Nuclear charges                            R   N=          18
  1.00000000E+00  6.00000000E+00  6.00000000E+00  6.00000000E+00  6.00000000E+00
  6.00000000E+00  1.00000000E+00  1.00000000E+00  1.00000000E+00  1.00000000E+00
  1.00000000E+00  6.00000000E+00  1.00000000E+00  6.00000000E+00  1.00000000E+00
  1.00000000E+00  6.00000000E+00  7.00000000E+00
Number of basis functions                  I              189
Number of contracted shells                I               63
Number of primitive shells                 I              144
Highest angular momentum                   I                2
Largest degree of contraction              I                6
Shell types                                I   N=          63
           0           0           0          -1          -1          -1
           2           0          -1          -1          -1           2
           0          -1          -1          -1           2           0
          -1          -1          -1           2           0          -1
          -1          -1           2           0           0           0
           0           0           0           0           0           0
           0           0          -1          -1          -1           2
           0           0           0          -1          -1          -1
           2           0           0           0           0           0
          -1          -1          -1           2           0          -1
          -1          -1           2
Number of primitives per shell             I   N=          63
           3           1           6           3           1           1
           1           6           3           1           1           1
           6           3           1           1           1           6
           3           1           1           1           6           3
           1           1           1           3           1           3
           1           3           1           3           1           3
           1           6           3           1           1           1
           3           1           6           3           1           1
           1           3           1           3           1           6
           3           1           1           1           6           3
           1           1           1
Shell to atom map                          I   N=          63
           1           1           2           2           2           2
           2           3           3           3           3           3
           4           4           4           4           4           5
           5           5           5           5           6           6
           6           6           6           7           7           8
           8           9           9          10          10          11
          11          12          12          12          12          12
          13          13          14          14          14          14
          14          15          15          16          16          17
          17          17          17          17          18          18
          18          18          18
Primitive exponents                        R   N=         144
  1.87311370E+01  2.82539370E+00  6.40121700E-01  1.61277800E-01  3.04752490E+03
  4.57369510E+02  1.03948690E+02  2.92101550E+01  9.28666300E+00  3.16392700E+00
  7.86827240E+00  1.88128850E+00  5.44249300E-01  1.68714400E-01  4.38000000E-02
  8.00000000E-01  3.04752490E+03  4.57369510E+02  1.03948690E+02  2.92101550E+01
  9.28666300E+00  3.16392700E+00  7.86827240E+00  1.88128850E+00  5.44249300E-01
  1.68714400E-01  4.38000000E-02  8.00000000E-01  3.04752490E+03  4.57369510E+02
  1.03948690E+02  2.92101550E+01  9.28666300E+00  3.16392700E+00  7.86827240E+00
  1.88128850E+00  5.44249300E-01  1.68714400E-01  4.38000000E-02  8.00000000E-01
  3.04752490E+03  4.57369510E+02  1.03948690E+02  2.92101550E+01  9.28666300E+00
  3.16392700E+00  7.86827240E+00  1.88128850E+00  5.44249300E-01  1.68714400E-01
  4.38000000E-02  8.00000000E-01  3.04752490E+03  4.57369510E+02  1.03948690E+02
  2.92101550E+01  9.28666300E+00  3.16392700E+00  7.86827240E+00  1.88128850E+00
  5.44249300E-01  1.68714400E-01  4.38000000E-02  8.00000000E-01  1.87311370E+01
  2.82539370E+00  6.40121700E-01  1.61277800E-01  1.87311370E+01  2.82539370E+00
  6.40121700E-01  1.61277800E-01  1.87311370E+01  2.82539370E+00  6.40121700E-01
  1.61277800E-01  1.87311370E+01  2.82539370E+00  6.40121700E-01  1.61277800E-01
  1.87311370E+01  2.82539370E+00  6.40121700E-01  1.61277800E-01  3.04752490E+03
  4.57369510E+02  1.03948690E+02  2.92101550E+01  9.28666300E+00  3.16392700E+00
  7.86827240E+00  1.88128850E+00  5.44249300E-01  1.68714400E-01  4.38000000E-02
  8.00000000E-01  1.87311370E+01  2.82539370E+00  6.40121700E-01  1.61277800E-01
  3.04752490E+03  4.57369510E+02  1.03948690E+02  2.92101550E+01  9.28666300E+00
  3.16392700E+00  7.86827240E+00  1.88128850E+00  5.44249300E-01  1.68714400E-01
  4.38000000E-02  8.00000000E-01  1.87311370E+01  2.82539370E+00  6.40121700E-01
  1.61277800E-01  1.87311370E+01  2.82539370E+00  6.40121700E-01  1.61277800E-01
  3.04752490E+03  4.57369510E+02  1.03948690E+02  2.92101550E+01  9.28666300E+00
  3.16392700E+00  7.86827240E+00  1.88128850E+00  5.44249300E-01  1.68714400E-01
  4.38000000E-02  8.00000000E-01  4.17351100E+03  6.27457900E+02  1.42902100E+02
  4.02343300E+01  1.28202100E+01  4.39043700E+00  1.16263580E+01  2.71628000E+00
  7.72218000E-01  2.12031300E-01  6.39000000E-02  8.00000000E-01
Contraction coefficients                   R   N=         144
  3.34945995E-02  2.34726947E-01  8.13757318E-01  1.00000000E+00  1.83470016E-03
  1.40373012E-02  6.88426061E-02  2.32184421E-01  4.67941342E-01  3.62312032E-01
 -1.19332409E-01 -1.60854212E-01  1.14345648E+00  1.00000000E+00  1.00000000E+00
  1.00000000E+00  1.83470016E-03  1.40373012E-02  6.88426061E-02  2.32184421E-01
  4.67941342E-01  3.62312032E-01 -1.19332409E-01 -1.60854212E-01  1.14345648E+00
  1.00000000E+00  1.00000000E+00  1.00000000E+00  1.83470016E-03  1.40373012E-02
  6.88426061E-02  2.32184421E-01  4.67941342E-01  3.62312032E-01 -1.19332409E-01
 -1.60854212E-01  1.14345648E+00  1.00000000E+00  1.00000000E+00  1.00000000E+00
  1.83470016E-03  1.40373012E-02  6.88426061E-02  2.32184421E-01  4.67941342E-01
  3.62312032E-01 -1.19332409E-01 -1.60854212E-01  1.14345648E+00  1.00000000E+00
  1.00000000E+00  1.00000000E+00  1.83470016E-03  1.40373012E-02  6.88426061E-02
  2.32184421E-01  4.67941342E-01  3.62312032E-01 -1.19332409E-01 -1.60854212E-01
  1.14345648E+00  1.00000000E+00  1.00000000E+00  1.00000000E+00  3.34945995E-02
  2.34726947E-01  8.13757318E-01  1.00000000E+00  3.34945995E-02  2.34726947E-01
  8.13757318E-01  1.00000000E+00  3.34945995E-02  2.34726947E-01  8.13757318E-01
  1.00000000E+00  3.34945995E-02  2.34726947E-01  8.13757318E-01  1.00000000E+00
  3.34945995E-02  2.34726947E-01  8.13757318E-01  1.00000000E+00  1.83470016E-03
  1.40373012E-02  6.88426061E-02  2.32184421E-01  4.67941342E-01  3.62312032E-01
 -1.19332409E-01 -1.60854212E-01  1.14345648E+00  1.00000000E+00  1.00000000E+00
  1.00000000E+00  3.34945995E-02  2.34726947E-01  8.13757318E-01  1.00000000E+00
  1.83470016E-03  1.40373012E-02  6.88426061E-02  2.32184421E-01  4.67941342E-01
  3.62312032E-01 -1.19332409E-01 -1.60854212E-01  1.14345648E+00  1.00000000E+00
  1.00000000E+00  1.00000000E+00  3.34945995E-02  2.34726947E-01  8.13757318E-01
  1.00000000E+00  3.34945995E-02  2.34726947E-01  8.13757318E-01  1.00000000E+00
  1.83470016E-03  1.40373012E-02  6.88426061E-02  2.32184421E-01  4.67941342E-01
  3.62312032E-01 -1.19332409E-01 -1.60854212E-01  1.14345648E+00  1.00000000E+00
  1.00000000E+00  1.00000000E+00  1.83479944E-03  1.39949958E-02  6.85869792E-02
  2.32240930E-01  4.69069858E-01  3.60454891E-01 -1.14961023E-01 -1.69118034E-01
  1.14585223E+00  1.00000000E+00  1.00000000E+00  1.00000000E+00
P(S=P) Contraction coefficients            R   N=         144
  0.00000000E+00  0.00000000E+00  0.00000000E+00  0.00000000E+00  0.00000000E+00
  0.00000000E+00  0.00000000E+00  0.00000000E+00  0.00000000E+00  0.00000000E+00
  6.89990956E-02  3.16423980E-01  7.44308252E-01  1.00000000E+00  1.00000000E+00
  0.00000000E+00  0.00000000E+00  0.00000000E+00  0.00000000E+00  0.00000000E+00
  0.00000000E+00  0.00000000E+00  6.89990956E-02  3.16423980E-01  7.44308252E-01
  1.00000000E+00  1.00000000E+00  0.00000000E+00  0.00000000E+00  0.00000000E+00
  0.00000000E+00  0.00000000E+00  0.00000000E+00  0.00000000E+00  6.89990956E-02
  3.16423980E-01  7.44308252E-01  1.00000000E+00  1.00000000E+00  0.00000000E+00
  0.00000000E+00  0.00000000E+00  0.00000000E+00  0.00000000E+00  0.00000000E+00
  0.00000000E+00  6.89990956E-02  3.16423980E-01  7.44308252E-01  1.00000000E+00
  1.00000000E+00  0.00000000E+00  0.00000000E+00  0.00000000E+00  0.00000000E+00
  0.00000000E+00  0.00000000E+00  0.00000000E+00  6.89990956E-02  3.16423980E-01
  7.44308252E-01  1.00000000E+00  1.00000000E+00  0.00000000E+00  0.00000000E+00
  0.00000000E+00  0.00000000E+00  0.00000000E+00  0.00000000E+00  0.00000000E+00
  0.00000000E+00  0.00000000E+00  0.00000000E+00  0.00000000E+00  0.00000000E+00
  0.00000000E+00  0.00000000E+00  0.00000000E+00  0.00000000E+00  0.00000000E+00
  0.00000000E+00  0.00000000E+00  0.00000000E+00  0.00000000E+00  0.00000000E+00
  0.00000000E+00  0.00000000E+00  0.00000000E+00  0.00000000E+00  0.00000000E+00
  6.89990956E-02  3.16423980E-01  7.44308252E-01  1.00000000E+00  1.00000000E+00
  0.00000000E+00  0.00000000E+00  0.00000000E+00  0.00000000E+00  0.00000000E+00
  0.00000000E+00  0.00000000E+00  0.00000000E+00  0.00000000E+00  0.00000000E+00
  0.00000000E+00  6.89990956E-02  3.16423980E-01  7.44308252E-01  1.00000000E+00
  1.00000000E+00  0.00000000E+00  0.00000000E+00  0.00000000E+00  0.00000000E+00
  0.00000000E+00  0.00000000E+00  0.00000000E+00  0.00000000E+00  0.00000000E+00
  0.00000000E+00  0.00000000E+00  0.00000000E+00  0.00000000E+00  0.00000000E+00
  0.00000000E+00  6.89990956E-02  3.16423980E-01  7.44308252E-01  1.00000000E+00
  1.00000000E+00  0.00000000E+00  0.00000000E+00  0.00000000E+00  0.00000000E+00
  0.00000000E+00  0.00000000E+00  0.00000000E+00  6.75800232E-02  3.23907111E-01
  7.40895255E-01  1.00000000E+00  1.00000000E+00  0.00000000E+00
Coordinates of each shell                  R   N=         189
 -5.47127303E+00 -2.04712141E-01  2.59725848E+00 -5.47127303E+00 -2.04712141E-01
  2.59725848E+00 -3.63729949E+00  2.17509367E-01  1.71450127E+00 -3.63729949E+00
  2.17509367E-01  1.71450127E+00 -3.63729949E+00  2.17509367E-01  1.71450127E+00
 -3.63729949E+00  2.17509367E-01  1.71450127E+00 -3.63729949E+00  2.17509367E-01
  1.71450127E+00 -1.80235275E+00 -1.92101432E+00  2.05541542E+00 -1.80235275E+00
 -1.92101432E+00  2.05541542E+00 -1.80235275E+00 -1.92101432E+00  2.05541542E+00
 -1.80235275E+00 -1.92101432E+00  2.05541542E+00 -1.80235275E+00 -1.92101432E+00
  2.05541542E+00 -1.15658420E+00 -2.84835962E+00 -2.27245236E-01 -1.15658420E+00
 -2.84835962E+00 -2.27245236E-01 -1.15658420E+00 -2.84835962E+00 -2.27245236E-01
 -1.15658420E+00 -2.84835962E+00 -2.27245236E-01 -1.15658420E+00 -2.84835962E+00
 -2.27245236E-01 -2.44667566E+00 -1.39356719E+00 -2.19689355E+00 -2.44667566E+00
 -1.39356719E+00 -2.19689355E+00 -2.44667566E+00 -1.39356719E+00 -2.19689355E+00
 -2.44667566E+00 -1.39356719E+00 -2.19689355E+00 -2.44667566E+00 -1.39356719E+00
 -2.19689355E+00 -3.87210174E+00  4.16754530E-01 -1.10785383E+00 -3.87210174E+00
  4.16754530E-01 -1.10785383E+00 -3.87210174E+00  4.16754530E-01 -1.10785383E+00
 -3.87210174E+00  4.16754530E-01 -1.10785383E+00 -3.87210174E+00  4.16754530E-01
 -1.10785383E+00 -2.96720639E+00  1.98043865E+00  2.58245248E+00 -2.96720639E+00
  1.98043865E+00  2.58245248E+00 -1.15364945E+00 -2.60051637E+00  3.87576403E+00
 -1.15364945E+00 -2.60051637E+00  3.87576403E+00  1.47670758E-01 -4.38843917E+00
 -5.83263968E-01  1.47670758E-01 -4.38843917E+00 -5.83263968E-01 -2.25182222E+00
 -1.73555849E+00 -4.20858449E+00 -2.25182222E+00 -1.73555849E+00 -4.20858449E+00
 -5.06110230E+00  1.78230275E+00 -2.06635127E+00 -5.06110230E+00  1.78230275E+00
 -2.06635127E+00  2.40342361E+00  2.36398124E+00  8.38909898E-01  2.40342361E+00
  2.36398124E+00  8.38909898E-01  2.40342361E+00  2.36398124E+00  8.38909898E-01
  2.40342361E+00  2.36398124E+00  8.38909898E-01  2.40342361E+00  2.36398124E+00
  8.38909898E-01  2.19910453E+00  2.69376869E+00  2.85410817E+00  2.19910453E+00
  2.69376869E+00  2.85410817E+00  1.12670952E+00  3.71004450E+00 -8.71624837E-01
  1.12670952E+00  3.71004450E+00 -8.71624837E-01  1.12670952E+00  3.71004450E+00
 -8.71624837E-01  1.12670952E+00  3.71004450E+00 -8.71624837E-01  1.12670952E+00
  3.71004450E+00 -8.71624837E-01 -1.60713648E-01  5.19521050E+00 -2.86835859E-01
 -1.60713648E-01  5.19521050E+00 -2.86835859E-01  1.32590366E+00  3.36690047E+00
 -2.88214604E+00  1.32590366E+00  3.36690047E+00 -2.88214604E+00  4.10366311E+00
  3.78054829E-01  1.28412559E-01  4.10366311E+00  3.78054829E-01  1.28412559E-01
  4.10366311E+00  3.78054829E-01  1.28412559E-01  4.10366311E+00  3.78054829E-01
  1.28412559E-01  4.10366311E+00  3.78054829E-01  1.28412559E-01  5.48827678E+00
 -1.22929897E+00 -4.23680377E-01  5.48827678E+00 -1.22929897E+00 -4.23680377E-01
  5.48827678E+00 -1.22929897E+00 -4.23680377E-01  5.48827678E+00 -1.22929897E+00
 -4.23680377E-01  5.48827678E+00 -1.22929897E+00 -4.23680377E-01
Overlap Matrix                             R   N=       17955
  1.00000000E+00  6.58292049E-01  1.00000000E+00  3.13252735E-02  9.10859306E-02
  1.00000000E+00  2.67430395E-01  4.71616684E-01  2.19058872E-01  1.00000000E+00
 -3.20274397E-01 -2.34275389E-01  3.76783730E-16  3.19123627E-16  1.00000000E+00
 -7.37342914E-02 -5.39354066E-02 -1.92163383E-17 -3.72037263E-17 -3.54235701E-32
  1.00000000E+00  1.54159550E-01  1.12765144E-01 -3.89136686E-17 -4.46191176E-17
 -1.18001205E-31  7.37507531E-33  1.00000000E+00  3.73045186E-01  7.00001207E-01
  1.84261053E-01  8.12273068E-01 -3.55824196E-16  2.22390122E-17  1.77912098E-16
  1.00000000E+00 -4.53671977E-01 -5.15428989E-01  6.15928251E-17 -3.33611800E-16
  5.69754058E-01 -9.31669894E-33 -7.45335915E-32  3.64818029E-16  1.00000000E+00
 -1.04445382E-01 -1.18663220E-01 -3.88544143E-18  2.08507375E-17 -9.31669894E-33
  5.69754058E-01  4.65834947E-33 -2.28011268E-17 -8.31826214E-33  1.00000000E+00
  2.18368587E-01  2.48094451E-01 -2.32575853E-17  1.66805900E-16 -7.45335915E-32
  4.65834947E-33  5.69754058E-01 -1.82409015E-16 -6.65460972E-32  4.15913107E-33
  1.00000000E+00  2.58049399E-01  6.39461048E-01  6.97718343E-02  4.02090587E-01
 -3.61332608E-16 -3.92367837E-18  5.15736942E-17  7.27666104E-01  2.65465714E-16
  0.00000000E+00  0.00000000E+00  1.00000000E+00 -1.86329149E-01 -3.86038084E-01
 -3.47589242E-18 -1.63025825E-16  1.64678564E-01  0.00000000E+00 -3.63225207E-32
  1.35260011E-16  5.88690339E-01  0.00000000E+00  0.00000000E+00  0.00000000E+00
  1.00000000E+00 -4.28971152E-02 -8.88745551E-02  4.92032219E-19  3.04344742E-19
  0.00000000E+00  1.64678564E-01  3.64670537E-34  0.00000000E+00  0.00000000E+00
  5.88690339E-01  0.00000000E+00  0.00000000E+00  0.00000000E+00  1.00000000E+00
  8.96868994E-02  1.85813970E-01  3.76899976E-18  4.41422166E-17 -3.63225207E-32
  3.64670537E-34  1.64678564E-01  0.00000000E+00  0.00000000E+00  0.00000000E+00
  5.88690339E-01  0.00000000E+00  0.00000000E+00  0.00000000E+00  1.00000000E+00
  3.74240238E-01  4.10895091E-01  7.91027073E-02  7.10235064E-01  9.78011465E-16
  6.76150316E-18  5.40920253E-17  6.29936196E-01  6.89436245E-16  0.00000000E+00
  0.00000000E+00  3.23540475E-01  0.00000000E+00  3.75877136E-18  0.00000000E+00
  1.00000000E+00  1.28099009E-01  3.50975082E-01  7.91027073E-02  7.10235064E-01
  3.26003822E-16  2.02845095E-17  5.40920253E-17  6.29936196E-01  2.29812082E-16
  0.00000000E+00  0.00000000E+00  3.23540475E-01  0.00000000E+00  1.12763141E-17
  0.00000000E+00  3.33333333E-01  1.00000000E+00  1.74541558E-01  3.62280940E-01
  7.91027073E-02  7.10235064E-01  3.26003822E-16  6.76150316E-18  1.62276076E-16
  6.29936196E-01  2.29812082E-16  0.00000000E+00  0.00000000E+00  3.23540475E-01
  0.00000000E+00  3.75877136E-18  0.00000000E+00  3.33333333E-01  3.33333333E-01
  1.00000000E+00  1.03643805E-01  2.52307903E-02 -2.95781271E-33  0.00000000E+00
  1.17112670E-17  5.64655183E-16  0.00000000E+00  0.00000000E+00  0.00000000E+00
  3.98046202E-16  0.00000000E+00  0.00000000E+00  6.51038296E-18  0.00000000E+00
  0.00000000E+00  0.00000000E+00  0.00000000E+00  0.00000000E+00  1.00000000E+00
 -2.16692695E-01 -5.27511312E-02 -8.23286833E-32  0.00000000E+00  9.36901361E-17
  0.00000000E+00  5.64655183E-16  0.00000000E+00  0.00000000E+00  0.00000000E+00
  3.98046202E-16  0.00000000E+00  0.00000000E+00  0.00000000E+00  0.00000000E+00
  0.00000000E+00  0.00000000E+00  0.00000000E+00  0.00000000E+00  1.00000000E+00
 -4.98874791E-02 -1.21444839E-02  5.34324399E-33 -3.81341520E-33  0.00000000E+00
  9.36901361E-17  1.17112670E-17  0.00000000E+00  0.00000000E+00  0.00000000E+00
  0.00000000E+00  0.00000000E+00  0.00000000E+00  0.00000000E+00  6.51038296E-18
  0.00000000E+00  0.00000000E+00  0.00000000E+00  0.00000000E+00  0.00000000E+00
  1.00000000E+00  3.31324702E-05  1.32529757E-02  3.84373897E-07  9.03425216E-03
  1.41690075E-02 -1.65131540E-02  2.63245523E-03  4.96829074E-02  7.22006744E-02
 -8.41456859E-02  1.34141395E-02  4.91931338E-02  3.74186891E-02 -4.36093054E-02
  6.95200594E-03  9.54619022E-03  1.28222303E-02  7.17391109E-04 -1.84590180E-02
  2.94265642E-03 -3.42949488E-03  1.00000000E+00  6.85549284E-03  1.03604101E-01
  9.03425216E-03  1.35088690E-01  1.31579019E-01 -1.53347692E-01  2.44460226E-02
  2.93834899E-01  3.32159766E-01 -3.87112885E-01  6.17118537E-02  2.90519205E-01
  2.05522406E-01 -2.39524408E-01  3.81839401E-02  1.33674417E-01  1.61612300E-01
  5.83829199E-02 -1.57417456E-01  2.50948066E-02 -2.92465373E-02  2.19058872E-01
  1.00000000E+00 -1.34033453E-02 -9.74049927E-02 -1.41690075E-02 -1.31579019E-01
 -7.08709454E-02  1.66718398E-01 -2.65775225E-02 -1.48359001E-01  2.23581744E-02
  2.03348947E-01 -3.24170054E-02 -4.55395996E-02  8.60386504E-02  3.79305367E-02
 -6.04672131E-03 -7.45827458E-02 -1.98793300E-01 -6.40583243E-02  1.16898980E-01
 -1.86355273E-02  3.81725772E-02  1.47946305E-16  1.87984380E-17  1.00000000E+00
  6.27001651E-03  4.55655584E-02  1.65131540E-02  1.53347692E-01  1.66718398E-01
 -1.22119871E-01  3.09745564E-02  1.72903785E-01  2.03348947E-01 -4.01509145E-02
  3.77801340E-02  5.30737542E-02  3.79305367E-02  7.43788739E-02  7.04710193E-03
  1.89184747E-01  1.29419131E-01  7.46562505E-02 -1.63462837E-01  3.81725772E-02
 -3.03697067E-02 -1.20908813E-16  8.06965933E-17  2.83818823E-32  1.00000000E+00
  1.97946783E-03  1.43852184E-02 -2.63245523E-03 -2.44460226E-02 -2.65775225E-02
  3.09745564E-02  6.72428942E-02 -2.75635699E-02 -3.24170054E-02  3.77801340E-02
  1.90817710E-01 -8.46078722E-03 -6.04672131E-03  7.04710193E-03  1.17461290E-01
 -3.01590101E-02 -3.69337417E-02  4.40093134E-03  3.81725772E-02  6.99049860E-02
 -8.14701947E-02 -1.16931656E-16 -6.05409139E-16 -2.89300341E-32 -2.89300341E-32
  1.00000000E+00  6.94212573E-02  2.52228354E-01  4.96829074E-02  2.93834899E-01
  1.48359001E-01 -1.72903785E-01  2.75635699E-02  5.06806106E-01  3.81980663E-01
 -4.45176242E-01  7.09680618E-02  5.49877284E-01  3.35289600E-01 -3.90760524E-01
  6.22933444E-02  2.45585217E-01  2.60118674E-01  2.06418122E-01 -8.18895192E-02
  1.30544712E-02 -1.52142268E-02  1.84261053E-01  8.12273068E-01 -1.91107787E-16
  0.00000000E+00 -2.63913784E-17  1.00000000E+00 -1.68054949E-01 -3.71543073E-01
 -7.22006744E-02 -3.32159766E-01  2.23581744E-02  2.03348947E-01 -3.24170054E-02
 -3.81980663E-01  2.18906601E-01  3.35530126E-01 -5.34887544E-02 -1.70836656E-01
  3.40688867E-01  1.21402035E-01 -1.93533848E-02 -1.98073112E-01 -3.23813759E-01
 -2.56963589E-01 -6.70801160E-03  1.06936205E-03  1.89397243E-02  2.10354099E-17
 -1.63464077E-16  5.69754058E-01  0.00000000E+00  0.00000000E+00  0.00000000E+00
  1.00000000E+00  7.86152472E-02  1.73805953E-01  8.41456859E-02  3.87112885E-01
  2.03348947E-01 -4.01509145E-02  3.77801340E-02  4.45176242E-01  3.35530126E-01
  1.15765263E-01  6.23380317E-02  1.99100184E-01  1.21402035E-01  3.03370107E-01
  2.25552441E-02  3.56300629E-01  2.51928160E-01  2.99476115E-01 -2.55809379E-02
  1.89397243E-02 -4.75267404E-03 -7.57857482E-18  0.00000000E+00  0.00000000E+00
  5.69754058E-01  0.00000000E+00  1.82409015E-16  0.00000000E+00  1.00000000E+00
  2.48191296E-02  5.48711939E-02 -1.34141395E-02 -6.17118537E-02 -3.24170054E-02
  3.77801340E-02  1.90817710E-01 -7.09680618E-02 -5.34887544E-02  6.23380317E-02
  4.96868448E-01 -3.17396861E-02 -1.93533848E-02  2.25552441E-02  4.41261457E-01
 -5.67998977E-02 -6.01612518E-02 -2.77412212E-02  1.89397243E-02  9.02069539E-02
 -1.05130957E-01 -2.32569778E-17  6.68364638E-18  0.00000000E+00  0.00000000E+00
  5.69754058E-01  0.00000000E+00  0.00000000E+00  0.00000000E+00  1.00000000E+00
  1.54959164E-01  4.17472162E-01  4.91931338E-02  2.90519205E-01  4.55395996E-02
 -5.30737542E-02  8.46078722E-03  5.49877284E-01  1.70836656E-01 -1.99100184E-01
  3.17396861E-02  8.38250641E-01  3.21909960E-01 -3.75167332E-01  5.98075455E-02
  2.35087886E-01  2.36357901E-01  2.31665245E-01 -7.15596621E-03  1.14077303E-03
 -1.32950461E-03  6.97718343E-02  4.02090587E-01 -1.80666304E-16 -9.27898290E-17
  1.75752950E-16  7.27666104E-01  1.32732857E-16  0.00000000E+00  0.00000000E+00
  1.00000000E+00 -2.23814785E-01 -5.04183685E-01 -3.74186891E-02 -2.05522406E-01
  8.60386504E-02  3.79305367E-02 -6.04672131E-03 -3.35289600E-01  3.40688867E-01
  1.21402035E-01 -1.93533848E-02 -3.21909960E-01  7.14628878E-01  1.44073973E-01
 -2.29676467E-02 -1.52724846E-01 -1.72111982E-01 -1.68694866E-01 -1.34232134E-02
  2.13987034E-03  9.68123646E-04 -7.36861682E-21 -8.15129123E-17  1.64678564E-01
  1.72479564E-32 -3.54092168E-32  6.76300053E-17  5.88690339E-01  0.00000000E+00
  0.00000000E+00  9.29409862E-17  1.00000000E+00  1.04699414E-01  2.35854554E-01
  4.36093054E-02  2.39524408E-01  3.79305367E-02  7.43788739E-02  7.04710193E-03
  3.90760524E-01  1.21402035E-01  3.03370107E-01  2.25552441E-02  3.75167332E-01
  1.44073973E-01  6.70340806E-01  2.67674561E-02  1.99508697E-01  1.79069730E-01
  1.96604053E-01  9.91589531E-03  9.68123646E-04  1.84227093E-03 -8.16919458E-18
 -4.04394553E-17  1.72479564E-32  1.64678564E-01 -1.72479564E-32  0.00000000E+00
  0.00000000E+00  5.88690339E-01  0.00000000E+00  0.00000000E+00  0.00000000E+00
  1.00000000E+00  3.30539994E-02  7.44601710E-02 -6.95200594E-03 -3.81839401E-02
 -6.04672131E-03  7.04710193E-03  1.17461290E-01 -6.22933444E-02 -1.93533848E-02
  2.25552441E-02  4.41261457E-01 -5.98075455E-02 -2.29676467E-02  2.67674561E-02
  8.33983489E-01 -3.18048093E-02 -3.19766284E-02 -2.79116533E-02  9.68123646E-04
  1.58345135E-02 -1.84542043E-02  7.53108122E-18  8.21469140E-17 -3.54092168E-32
 -1.72479564E-32  1.64678564E-01  0.00000000E+00  0.00000000E+00  0.00000000E+00
  5.88690339E-01  0.00000000E+00  0.00000000E+00  0.00000000E+00  1.00000000E+00
  1.18877735E-02  1.14069278E-01  9.54619022E-03  1.33674417E-01  7.45827458E-02
 -1.89184747E-01  3.01590101E-02  2.45585217E-01  1.98073112E-01 -3.56300629E-01
  5.67998977E-02  2.35087886E-01  1.52724846E-01 -1.99508697E-01  3.18048093E-02
  6.46692682E-02  2.28573424E-01  5.36264708E-02 -1.22326407E-01  1.95007441E-02
 -4.95652749E-02  7.91027073E-02  7.10235064E-01 -1.62276076E-16 -5.40920253E-17
  0.00000000E+00  6.29936196E-01  0.00000000E+00  1.14906041E-16  0.00000000E+00
  3.23540475E-01 -9.02105126E-17  0.00000000E+00  0.00000000E+00  1.00000000E+00
  3.66737346E-03  7.65149395E-02  1.28222303E-02  1.61612300E-01  1.98793300E-01
 -1.29419131E-01  3.69337417E-02  2.60118674E-01  3.23813759E-01 -2.51928160E-01
  6.01612518E-02  2.36357901E-01  1.72111982E-01 -1.79069730E-01  3.19766284E-02
  2.28573424E-01  1.20459454E-01  6.76370256E-02 -1.92026293E-01  5.36404240E-02
 -3.56765018E-02  7.91027073E-02  7.10235064E-01 -5.40920253E-17 -1.62276076E-16
  0.00000000E+00  6.29936196E-01  0.00000000E+00  3.44718122E-16  0.00000000E+00
  3.23540475E-01 -3.00701709E-17  0.00000000E+00  0.00000000E+00  3.33333333E-01
  1.00000000E+00  1.59407527E-03  6.70432177E-02  7.17391109E-04  5.83829199E-02
  6.40583243E-02 -7.46562505E-02 -4.40093134E-03  2.06418122E-01  2.56963589E-01
 -2.99476115E-01  2.77412212E-02  2.31665245E-01  1.68694866E-01 -1.96604053E-01
  2.79116533E-02  5.36264708E-02  6.76370256E-02  3.74954175E-02 -7.89431986E-02
 -1.04436453E-02  1.21714611E-02  7.91027073E-02  7.10235064E-01 -5.40920253E-17
 -5.40920253E-17  0.00000000E+00  6.29936196E-01  0.00000000E+00  1.14906041E-16
  0.00000000E+00  3.23540475E-01 -3.00701709E-17  0.00000000E+00  0.00000000E+00
  3.33333333E-01  3.33333333E-01  1.00000000E+00 -8.52637932E-03 -3.89521841E-02
 -1.84590180E-02 -1.57417456E-01 -1.16898980E-01  1.63462837E-01 -3.81725772E-02
 -8.18895192E-02  6.70801160E-03  2.55809379E-02 -1.89397243E-02 -7.15596621E-03
  1.34232134E-02 -9.91589531E-03 -9.68123646E-04 -1.22326407E-01 -1.92026293E-01
 -7.89431986E-02  1.79436470E-01 -3.93642891E-02  5.30215342E-02  5.96406015E-32
 -3.05073216E-32 -9.36901361E-17 -9.36901361E-17  0.00000000E+00  0.00000000E+00
  1.99023101E-16  0.00000000E+00  0.00000000E+00  0.00000000E+00  0.00000000E+00
 -5.20830637E-17  0.00000000E+00  2.73269434E-31  2.73269434E-31  9.10898112E-32
  1.00000000E+00 -2.69181006E-03 -1.22973512E-02  2.94265642E-03  2.50948066E-02
  1.86355273E-02 -3.81725772E-02 -6.99049860E-02  1.30544712E-02 -1.06936205E-03
 -1.89397243E-02 -9.02069539E-02  1.14077303E-03 -2.13987034E-03 -9.68123646E-04
 -1.58345135E-02  1.95007441E-02  5.36404240E-02 -1.04436453E-02 -3.93642891E-02
 -6.12168766E-02  1.13470188E-01 -1.64550494E-31  0.00000000E+00  0.00000000E+00
  0.00000000E+00 -9.36901361E-17  0.00000000E+00  0.00000000E+00  0.00000000E+00
  0.00000000E+00  0.00000000E+00  0.00000000E+00  0.00000000E+00 -5.20830637E-17
  0.00000000E+00  0.00000000E+00  0.00000000E+00  0.00000000E+00  1.00000000E+00
  1.25921501E-03  5.75263812E-03 -3.42949488E-03 -2.92465373E-02 -3.81725772E-02
  3.03697067E-02  8.14701947E-02 -1.52142268E-02 -1.89397243E-02  4.75267404E-03
  1.05130957E-01 -1.32950461E-03 -9.68123646E-04 -1.84227093E-03  1.84542043E-02
 -4.95652749E-02 -3.56765018E-02  1.21714611E-02  5.30215342E-02  1.13470188E-01
 -9.60974018E-02 -8.23286833E-32  0.00000000E+00  0.00000000E+00  0.00000000E+00
 -9.36901361E-17  0.00000000E+00  0.00000000E+00  0.00000000E+00  1.99023101E-16
  0.00000000E+00  0.00000000E+00  0.00000000E+00  0.00000000E+00  0.00000000E+00
  0.00000000E+00  0.00000000E+00  0.00000000E+00  1.57772181E-31  1.00000000E+00
  3.54224493E-09  9.58086777E-04  6.94904624E-15  4.06221114E-05  8.47397166E-05
 -1.04728209E-04 -6.63288726E-05  7.95320568E-03  1.56158394E-02 -1.92993198E-02
 -1.22230881E-02  3.01747072E-02  3.10295589E-02 -3.83488434E-02 -2.42879696E-02
  9.86539393E-06  1.49221227E-05  6.15173682E-06 -2.05241528E-05 -1.29988274E-05
  1.60650043E-05  4.64383053E-06  1.92787708E-02  1.07181943E-02 -1.53916866E-02
 -3.78866398E-02  6.41274767E-02  3.27996335E-02 -4.71013740E-02 -1.15940042E-01
  5.26577970E-02  1.40961622E-02 -2.02425618E-02 -4.98270702E-02  4.39043659E-03
  7.86827524E-03  4.20267663E-02 -8.14388202E-03 -2.00461673E-02  2.87869688E-02
  1.00000000E+00  4.74888735E-05  1.29671285E-02  4.06221114E-05  6.71758799E-03
  8.14632249E-03 -1.00678855E-02 -6.37642428E-03  7.03508739E-02  1.08076070E-01
 -1.33569166E-01 -8.45950892E-02  1.84394785E-01  1.76379483E-01 -2.17984059E-01
 -1.38058666E-01  5.41171945E-03  7.49511459E-03  3.88167592E-03 -8.45604381E-03
 -5.35557572E-03  6.61885447E-03  1.92787708E-02  2.02198404E-01  7.12343834E-02
 -1.02294964E-01 -2.51799077E-01  3.58326344E-01  1.42424973E-01 -2.04527040E-01
 -5.03443352E-01  3.09502931E-01  7.70537491E-02 -1.10651769E-01 -2.72369352E-01
  1.07635380E-01  1.24077482E-01  2.85567839E-01 -3.85016543E-02 -9.47718302E-02
  1.36095527E-01  2.19058872E-01  1.00000000E+00 -1.06500462E-04 -1.36009215E-02
 -8.47397166E-05 -8.14632249E-03 -7.13692287E-03  1.24900609E-02  7.91049198E-03