Jobname.Temp
SP        R                             6-31+G(d)           
Number of atoms                            I               18
Charge                                     I                0
Multiplicity                               I                1
Number of electrons                        I               64
Number of alpha electrons                  I               32
Number of beta electrons                   I               32
Atomic numbers                             I   N=          18
           1           6           6           6           6           6
           1           1           1           1           1           6
           1           6           1           1           6           7
Current cartesian coordinates              R   N=          54
 -4.99161707E+00 -3.59898341E-01  2.12605527E+00 -3.12715659E+00  4.61414428E-01
  1.69636935E+00 -1.17695923E+00 -1.57433083E+00  1.97712596E+00 -9.85246510E-01
 -2.82827750E+00 -3.13505564E-01 -2.14977134E+00 -1.35973354E+00 -2.19433108E+00
 -3.00099847E+00  9.02797759E-01 -1.12183591E+00 -2.87810958E+00  2.12439232E+00
  2.89073295E+00 -5.02251410E-01 -2.28532139E+00  3.77595626E+00  9.08013403E-02
 -4.53861193E+00 -6.43168287E-01 -2.14508482E+00 -1.78586678E+00 -4.19885807E+00
 -4.25040979E+00  2.20982683E+00 -2.09219138E+00  1.82568331E+00  1.73890708E+00
  9.20126548E-01  1.83636026E+00  2.36695756E+00  2.87123098E+00  3.63810074E-01
  2.96624641E+00 -8.93538101E-01 -5.92674805E-01  4.70052366E+00 -3.55174025E-01
  9.21676123E-01  2.86756491E+00 -2.86282170E+00  3.87841721E+00  1.52519796E-01
  1.85703386E-01  5.53493223E+00 -1.15097549E+00 -4.35506283E-01
Nuclear charges                            R   N=          18
  1.00000000E+00  6.00000000E+00  6.00000000E+00  6.00000000E+00  6.00000000E+00
  6.00000000E+00  1.00000000E+00  1.00000000E+00  1.00000000E+00  1.00000000E+00
  1.00000000E+00  6.00000000E+00  1.00000000E+00  6.00000000E+00  1.00000000E+00
  1.00000000E+00  6.00000000E+00  7.00000000E+00
Number of basis functions                  I              189
Number of contracted shells                I               63
Number of primitive shells                 I              144
Highest angular momentum                   I                2
Largest degree of contraction              I                6
Shell types                                I   N=          63
           0           0           0          -1          -1          -1
           2           0          -1          -1          -1           2
           0          -1          -1          -1           2           0
          -1          -1          -1           2           0          -1
          -1          -1           2           0           0           0
           0           0           0           0           0           0
           0           0          -1          -1          -1           2
           0           0           0          -1          -1          -1
           2           0           0           0           0           0
          -1          -1          -1           2           0          -1
          -1          -1           2
Number of primitives per shell             I   N=          63
           3           1           6           3           1           1
           1           6           3           1           1           1
           6           3           1           1           1           6
           3           1           1           1           6           3
           1           1           1           3           1           3
           1           3           1           3           1           3
           1           6           3           1           1           1
           3           1           6           3           1           1
           1           3           1           3           1           6
           3           1           1           1           6           3
           1           1           1
Shell to atom map                          I   N=          63
           1           1           2           2           2           2
           2           3           3           3           3           3
           4           4           4           4           4           5
           5           5           5           5           6           6
           6           6           6           7           7           8
           8           9           9          10          10          11
          11          12          12          12          12          12
          13          13          14          14          14          14
          14          15          15          16          16          17
          17          17          17          17          18          18
          18          18          18
Primitive exponents                        R   N=         144
  1.87311370E+01  2.82539370E+00  6.40121700E-01  1.61277800E-01  3.04752490E+03
  4.57369510E+02  1.03948690E+02  2.92101550E+01  9.28666300E+00  3.16392700E+00
  7.86827240E+00  1.88128850E+00  5.44249300E-01  1.68714400E-01  4.38000000E-02
  8.00000000E-01  3.04752490E+03  4.57369510E+02  1.03948690E+02  2.92101550E+01
  9.28666300E+00  3.16392700E+00  7.86827240E+00  1.88128850E+00  5.44249300E-01
  1.68714400E-01  4.38000000E-02  8.00000000E-01  3.04752490E+03  4.57369510E+02
  1.03948690E+02  2.92101550E+01  9.28666300E+00  3.16392700E+00  7.86827240E+00
  1.88128850E+00  5.44249300E-01  1.68714400E-01  4.38000000E-02  8.00000000E-01
  3.04752490E+03  4.57369510E+02  1.03948690E+02  2.92101550E+01  9.28666300E+00
  3.16392700E+00  7.86827240E+00  1.88128850E+00  5.44249300E-01  1.68714400E-01
  4.38000000E-02  8.00000000E-01  3.04752490E+03  4.57369510E+02  1.03948690E+02
  2.92101550E+01  9.28666300E+00  3.16392700E+00  7.86827240E+00  1.88128850E+00
  5.44249300E-01  1.68714400E-01  4.38000000E-02  8.00000000E-01  1.87311370E+01
  2.82539370E+00  6.40121700E-01  1.61277800E-01  1.87311370E+01  2.82539370E+00
  6.40121700E-01  1.61277800E-01  1.87311370E+01  2.82539370E+00  6.40121700E-01
  1.61277800E-01  1.87311370E+01  2.82539370E+00  6.40121700E-01  1.61277800E-01
  1.87311370E+01  2.82539370E+00  6.40121700E-01  1.61277800E-01  3.04752490E+03
  4.57369510E+02  1.03948690E+02  2.92101550E+01  9.28666300E+00  3.16392700E+00
  7.86827240E+00  1.88128850E+00  5.44249300E-01  1.68714400E-01  4.38000000E-02
  8.00000000E-01  1.87311370E+01  2.82539370E+00  6.40121700E-01  1.61277800E-01
  3.04752490E+03  4.57369510E+02  1.03948690E+02  2.92101550E+01  9.28666300E+00
  3.16392700E+00  7.86827240E+00  1.88128850E+00  5.44249300E-01  1.68714400E-01
  4.38000000E-02  8.00000000E-01  1.87311370E+01  2.82539370E+00  6.40121700E-01
  1.61277800E-01  1.87311370E+01  2.82539370E+00  6.40121700E-01  1.61277800E-01
  3.04752490E+03  4.57369510E+02  1.03948690E+02  2.92101550E+01  9.28666300E+00
  3.16392700E+00  7.86827240E+00  1.88128850E+00  5.44249300E-01  1.68714400E-01
  4.38000000E-02  8.00000000E-01  4.17351100E+03  6.27457900E+02  1.42902100E+02
  4.02343300E+01  1.28202100E+01  4.39043700E+00  1.16263580E+01  2.71628000E+00
  7.72218000E-01  2.12031300E-01  6.39000000E-02  8.00000000E-01
Contraction coefficients                   R   N=         144
  3.34945995E-02  2.34726947E-01  8.13757318E-01  1.00000000E+00  1.83470016E-03
  1.40373012E-02  6.88426061E-02  2.32184421E-01  4.67941342E-01  3.62312032E-01
 -1.19332409E-01 -1.60854212E-01  1.14345648E+00  1.00000000E+00  1.00000000E+00
  1.00000000E+00  1.83470016E-03  1.40373012E-02  6.88426061E-02  2.32184421E-01
  4.67941342E-01  3.62312032E-01 -1.19332409E-01 -1.60854212E-01  1.14345648E+00
  1.00000000E+00  1.00000000E+00  1.00000000E+00  1.83470016E-03  1.40373012E-02
  6.88426061E-02  2.32184421E-01  4.67941342E-01  3.62312032E-01 -1.19332409E-01
 -1.60854212E-01  1.14345648E+00  1.00000000E+00  1.00000000E+00  1.00000000E+00
  1.83470016E-03  1.40373012E-02  6.88426061E-02  2.32184421E-01  4.67941342E-01
  3.62312032E-01 -1.19332409E-01 -1.60854212E-01  1.14345648E+00  1.00000000E+00
  1.00000000E+00  1.00000000E+00  1.83470016E-03  1.40373012E-02  6.88426061E-02
  2.32184421E-01  4.67941342E-01  3.62312032E-01 -1.19332409E-01 -1.60854212E-01
  1.14345648E+00  1.00000000E+00  1.00000000E+00  1.00000000E+00  3.34945995E-02
  2.34726947E-01  8.13757318E-01  1.00000000E+00  3.34945995E-02  2.34726947E-01
  8.13757318E-01  1.00000000E+00  3.34945995E-02  2.34726947E-01  8.13757318E-01
  1.00000000E+00  3.34945995E-02  2.34726947E-01  8.13757318E-01  1.00000000E+00
  3.34945995E-02  2.34726947E-01  8.13757318E-01  1.00000000E+00  1.83470016E-03
  1.40373012E-02  6.88426061E-02  2.32184421E-01  4.67941342E-01  3.62312032E-01
 -1.19332409E-01 -1.60854212E-01  1.14345648E+00  1.00000000E+00  1.00000000E+00
  1.00000000E+00  3.34945995E-02  2.34726947E-01  8.13757318E-01  1.00000000E+00
  1.83470016E-03  1.40373012E-02  6.88426061E-02  2.32184421E-01  4.67941342E-01
  3.62312032E-01 -1.19332409E-01 -1.60854212E-01  1.14345648E+00  1.00000000E+00
  1.00000000E+00  1.00000000E+00  3.34945995E-02  2.34726947E-01  8.13757318E-01
  1.00000000E+00  3.34945995E-02  2.34726947E-01  8.13757318E-01  1.00000000E+00
  1.83470016E-03  1.40373012E-02  6.88426061E-02  2.32184421E-01  4.67941342E-01
  3.62312032E-01 -1.19332409E-01 -1.60854212E-01  1.14345648E+00  1.00000000E+00
  1.00000000E+00  1.00000000E+00  1.83479944E-03  1.39949958E-02  6.85869792E-02
  2.32240930E-01  4.69069858E-01  3.60454891E-01 -1.14961023E-01 -1.69118034E-01
  1.14585223E+00  1.00000000E+00  1.00000000E+00  1.00000000E+00
P(S=P) Contraction coefficients            R   N=         144
  0.00000000E+00  0.00000000E+00  0.00000000E+00  0.00000000E+00  0.00000000E+00
  0.00000000E+00  0.00000000E+00  0.00000000E+00  0.00000000E+00  0.00000000E+00
  6.89990956E-02  3.16423980E-01  7.44308252E-01  1.00000000E+00  1.00000000E+00
  0.00000000E+00  0.00000000E+00  0.00000000E+00  0.00000000E+00  0.00000000E+00
  0.00000000E+00  0.00000000E+00  6.89990956E-02  3.16423980E-01  7.44308252E-01
  1.00000000E+00  1.00000000E+00  0.00000000E+00  0.00000000E+00  0.00000000E+00
  0.00000000E+00  0.00000000E+00  0.00000000E+00  0.00000000E+00  6.89990956E-02
  3.16423980E-01  7.44308252E-01  1.00000000E+00  1.00000000E+00  0.00000000E+00
  0.00000000E+00  0.00000000E+00  0.00000000E+00  0.00000000E+00  0.00000000E+00
  0.00000000E+00  6.89990956E-02  3.16423980E-01  7.44308252E-01  1.00000000E+00
  1.00000000E+00  0.00000000E+00  0.00000000E+00  0.00000000E+00  0.00000000E+00
  0.00000000E+00  0.00000000E+00  0.00000000E+00  6.89990956E-02  3.16423980E-01
  7.44308252E-01  1.00000000E+00  1.00000000E+00  0.00000000E+00  0.00000000E+00
  0.00000000E+00  0.00000000E+00  0.00000000E+00  0.00000000E+00  0.00000000E+00
  0.00000000E+00  0.00000000E+00  0.00000000E+00  0.00000000E+00  0.00000000E+00
  0.00000000E+00  0.00000000E+00  0.00000000E+00  0.00000000E+00  0.00000000E+00
  0.00000000E+00  0.00000000E+00  0.00000000E+00  0.00000000E+00  0.00000000E+00
  0.00000000E+00  0.00000000E+00  0.00000000E+00  0.00000000E+00  0.00000000E+00
  6.89990956E-02  3.16423980E-01  7.44308252E-01  1.00000000E+00  1.00000000E+00
  0.00000000E+00  0.00000000E+00  0.00000000E+00  0.00000000E+00  0.00000000E+00
  0.00000000E+00  0.00000000E+00  0.00000000E+00  0.00000000E+00  0.00000000E+00
  0.00000000E+00  6.89990956E-02  3.16423980E-01  7.44308252E-01  1.00000000E+00
  1.00000000E+00  0.00000000E+00  0.00000000E+00  0.00000000E+00  0.00000000E+00
  0.00000000E+00  0.00000000E+00  0.00000000E+00  0.00000000E+00  0.00000000E+00
  0.00000000E+00  0.00000000E+00  0.00000000E+00  0.00000000E+00  0.00000000E+00
  0.00000000E+00  6.89990956E-02  3.16423980E-01  7.44308252E-01  1.00000000E+00
  1.00000000E+00  0.00000000E+00  0.00000000E+00  0.00000000E+00  0.00000000E+00
  0.00000000E+00  0.00000000E+00  0.00000000E+00  6.75800232E-02  3.23907111E-01
  7.40895255E-01  1.00000000E+00  1.00000000E+00  0.00000000E+00
Coordinates of each shell                  R   N=         189
 -4.99161707E+00 -3.59898341E-01  2.12605527E+00 -4.99161707E+00 -3.59898341E-01
  2.12605527E+00 -3.12715659E+00  4.61414428E-01  1.69636935E+00 -3.12715659E+00
  4.61414428E-01  1.69636935E+00 -3.12715659E+00  4.61414428E-01  1.69636935E+00
 -3.12715659E+00  4.61414428E-01  1.69636935E+00 -3.12715659E+00  4.61414428E-01
  1.69636935E+00 -1.17695923E+00 -1.57433083E+00  1.97712596E+00 -1.17695923E+00
 -1.57433083E+00  1.97712596E+00 -1.17695923E+00 -1.57433083E+00  1.97712596E+00
 -1.17695923E+00 -1.57433083E+00  1.97712596E+00 -1.17695923E+00 -1.57433083E+00
  1.97712596E+00 -9.85246510E-01 -2.82827750E+00 -3.13505564E-01 -9.85246510E-01
 -2.82827750E+00 -3.13505564E-01 -9.85246510E-01 -2.82827750E+00 -3.13505564E-01
 -9.85246510E-01 -2.82827750E+00 -3.13505564E-01 -9.85246510E-01 -2.82827750E+00
 -3.13505564E-01 -2.14977134E+00 -1.35973354E+00 -2.19433108E+00 -2.14977134E+00
 -1.35973354E+00 -2.19433108E+00 -2.14977134E+00 -1.35973354E+00 -2.19433108E+00
 -2.14977134E+00 -1.35973354E+00 -2.19433108E+00 -2.14977134E+00 -1.35973354E+00
 -2.19433108E+00 -3.00099847E+00  9.02797759E-01 -1.12183591E+00 -3.00099847E+00
  9.02797759E-01 -1.12183591E+00 -3.00099847E+00  9.02797759E-01 -1.12183591E+00
 -3.00099847E+00  9.02797759E-01 -1.12183591E+00 -3.00099847E+00  9.02797759E-01
 -1.12183591E+00 -2.87810958E+00  2.12439232E+00  2.89073295E+00 -2.87810958E+00
  2.12439232E+00  2.89073295E+00 -5.02251410E-01 -2.28532139E+00  3.77595626E+00
 -5.02251410E-01 -2.28532139E+00  3.77595626E+00  9.08013403E-02 -4.53861193E+00
 -6.43168287E-01  9.08013403E-02 -4.53861193E+00 -6.43168287E-01 -2.14508482E+00
 -1.78586678E+00 -4.19885807E+00 -2.14508482E+00 -1.78586678E+00 -4.19885807E+00
 -4.25040979E+00  2.20982683E+00 -2.09219138E+00 -4.25040979E+00  2.20982683E+00
 -2.09219138E+00  1.82568331E+00  1.73890708E+00  9.20126548E-01  1.82568331E+00
  1.73890708E+00  9.20126548E-01  1.82568331E+00  1.73890708E+00  9.20126548E-01
  1.82568331E+00  1.73890708E+00  9.20126548E-01  1.82568331E+00  1.73890708E+00
  9.20126548E-01  1.83636026E+00  2.36695756E+00  2.87123098E+00  1.83636026E+00
  2.36695756E+00  2.87123098E+00  3.63810074E-01  2.96624641E+00 -8.93538101E-01
  3.63810074E-01  2.96624641E+00 -8.93538101E-01  3.63810074E-01  2.96624641E+00
 -8.93538101E-01  3.63810074E-01  2.96624641E+00 -8.93538101E-01  3.63810074E-01
  2.96624641E+00 -8.93538101E-01 -5.92674805E-01  4.70052366E+00 -3.55174025E-01
 -5.92674805E-01  4.70052366E+00 -3.55174025E-01  9.21676123E-01  2.86756491E+00
 -2.86282170E+00  9.21676123E-01  2.86756491E+00 -2.86282170E+00  3.87841721E+00
  1.52519796E-01  1.85703386E-01  3.87841721E+00  1.52519796E-01  1.85703386E-01
  3.87841721E+00  1.52519796E-01  1.85703386E-01  3.87841721E+00  1.52519796E-01
  1.85703386E-01  3.87841721E+00  1.52519796E-01  1.85703386E-01  5.53493223E+00
 -1.15097549E+00 -4.35506283E-01  5.53493223E+00 -1.15097549E+00 -4.35506283E-01
  5.53493223E+00 -1.15097549E+00 -4.35506283E-01  5.53493223E+00 -1.15097549E+00
 -4.35506283E-01  5.53493223E+00 -1.15097549E+00 -4.35506283E-01
Overlap Matrix                             R   N=       17955
  1.00000000E+00  6.58292049E-01  1.00000000E+00  3.10715466E-02  9.08817598E-02
  1.00000000E+00  2.66293293E-01  4.70788068E-01  2.19058872E-01  1.00000000E+00
 -3.24018227E-01 -2.37733562E-01 -4.31761525E-17  3.19123627E-16  1.00000000E+00
 -1.42733144E-01 -1.04723919E-01  2.14847598E-17 -1.11547794E-17 -2.95003013E-32
  1.00000000E+00  7.46736511E-02  5.47883779E-02 -1.81285381E-16 -3.74895987E-17
 -7.26353789E-32  9.07942236E-33  1.00000000E+00  3.72313960E-01  6.99170118E-01
  1.84261053E-01  8.12273068E-01  0.00000000E+00  4.77769468E-17  1.91107787E-16
  1.00000000E+00 -4.60306485E-01 -5.23375067E-01  4.38864963E-17  0.00000000E+00
  5.69754058E-01  0.00000000E+00  0.00000000E+00  3.64818029E-16  1.00000000E+00
 -2.02769432E-01 -2.30551749E-01 -2.90712223E-18  4.08660193E-17  0.00000000E+00
  5.69754058E-01  8.71494578E-33  0.00000000E+00  0.00000000E+00  1.00000000E+00
  1.06082816E-01  1.20617681E-01 -2.35434893E-17  1.63464077E-16  0.00000000E+00
  8.71494578E-33  5.69754058E-01  0.00000000E+00  0.00000000E+00  0.00000000E+00
  1.00000000E+00  2.57896273E-01  6.39143785E-01  6.97718343E-02  4.02090587E-01
 -1.22800804E-16  1.53501005E-17  2.50976212E-17  7.27666104E-01  2.65465714E-16
  3.31832142E-17  0.00000000E+00  1.00000000E+00 -1.89314148E-01 -3.92260652E-01
 -1.55097507E-17 -8.57484264E-17  1.64678564E-01 -5.77067126E-33 -2.89174136E-32
  1.35260011E-16  5.88690339E-01  6.16816131E-33  0.00000000E+00 -1.85881972E-16
  1.00000000E+00 -8.33947023E-02 -1.72794588E-01  1.49185597E-18  1.07185533E-17
 -5.77067126E-33  1.64678564E-01  3.61467670E-33  1.69075013E-17  6.16816131E-33
  5.88690339E-01  0.00000000E+00  0.00000000E+00  0.00000000E+00  1.00000000E+00
  4.36295785E-02  9.04008869E-02  2.20188327E-18  4.59429729E-17 -2.89174136E-32
  3.61467670E-33  1.64678564E-01  0.00000000E+00  0.00000000E+00  0.00000000E+00
  5.88690339E-01 -9.29409862E-17  1.72760538E-32  0.00000000E+00  1.00000000E+00
  3.80795067E-01  4.12218331E-01  7.91027073E-02  7.10235064E-01 -3.24552152E-16
 -4.07504777E-17 -4.03416183E-18  6.29936196E-01  0.00000000E+00  0.00000000E+00
 -1.14906041E-16  3.23540475E-01  0.00000000E+00  0.00000000E+00  0.00000000E+00
  1.00000000E+00  1.65551061E-01  3.59615132E-01  7.91027073E-02  7.10235064E-01
 -1.08184051E-16 -1.22251433E-16 -4.03416183E-18  6.29936196E-01  0.00000000E+00
  0.00000000E+00 -1.14906041E-16  3.23540475E-01  0.00000000E+00  0.00000000E+00
  0.00000000E+00  3.33333333E-01  1.00000000E+00  1.27911442E-01  3.50416436E-01
  7.91027073E-02  7.10235064E-01 -1.08184051E-16 -4.07504777E-17 -1.21024855E-17
  6.29936196E-01  0.00000000E+00  0.00000000E+00 -3.44718122E-16  3.23540475E-01
  0.00000000E+00  0.00000000E+00  0.00000000E+00  3.33333333E-01  3.33333333E-01
  1.00000000E+00  2.03769085E-01  4.97988577E-02 -4.11643416E-32  0.00000000E+00
 -7.05818979E-17 -1.87380272E-16  0.00000000E+00  0.00000000E+00  0.00000000E+00
  0.00000000E+00  0.00000000E+00  0.00000000E+00  0.00000000E+00  0.00000000E+00
  0.00000000E+00  0.00000000E+00  0.00000000E+00  0.00000000E+00  1.00000000E+00
 -1.06605804E-01 -2.60532517E-02 -8.39069179E-32  1.65841046E-32 -6.98737325E-18
  0.00000000E+00 -1.87380272E-16  0.00000000E+00 -1.99023101E-16  0.00000000E+00
  0.00000000E+00  0.00000000E+00  0.00000000E+00  0.00000000E+00  0.00000000E+00
  0.00000000E+00  0.00000000E+00  0.00000000E+00  0.00000000E+00  1.00000000E+00
 -4.69608815E-02 -1.14767078E-02  2.05821708E-32  0.00000000E+00  0.00000000E+00
 -6.98737325E-18 -7.05818979E-17  0.00000000E+00  0.00000000E+00 -1.99023101E-16
  0.00000000E+00  0.00000000E+00  0.00000000E+00  0.00000000E+00  0.00000000E+00
  0.00000000E+00  0.00000000E+00  0.00000000E+00  0.00000000E+00  0.00000000E+00
  1.00000000E+00  4.73294674E-05  1.46678523E-02  4.03210536E-07  9.16688258E-03
  1.52814615E-02 -1.59518024E-02  2.19996777E-03  4.99274136E-02  7.71132727E-02
 -8.04959450E-02  1.11014718E-02  4.92575827E-02  3.98210116E-02 -4.15678112E-02
  5.73275939E-03  1.09513914E-02  1.18965249E-02  6.28190590E-04 -1.90596701E-02
  2.62858447E-03 -2.74389069E-03  1.00000000E+00  8.30922938E-03  1.12230950E-01
  9.16688258E-03  1.36149035E-01  1.41007058E-01 -1.47192513E-01  2.02998243E-02
  2.94959128E-01  3.54367017E-01 -3.69911779E-01  5.10158021E-02  2.90873175E-01
  2.18697053E-01 -2.28290479E-01  3.14843229E-02  1.45137340E-01  1.53108112E-01
  5.80767477E-02 -1.60739503E-01  2.21681362E-02 -2.31405698E-02  2.19058872E-01
  1.00000000E+00 -1.69451020E-02 -1.09982815E-01 -1.52814615E-02 -1.41007058E-01
 -9.02559507E-02  1.70234557E-01 -2.34776315E-02 -1.58304940E-01 -2.52205504E-04
  2.06556366E-01 -2.84868967E-02 -4.84594575E-02  8.19226088E-02  3.84226967E-02
 -5.29900586E-03 -9.42795409E-02 -1.99586149E-01 -6.75520094E-02  1.38140027E-01
 -1.90513648E-02  3.21509140E-02  1.50117728E-17 -1.22042783E-17  1.00000000E+00
  5.39463389E-03  3.50140718E-02  1.59518024E-02  1.47192513E-01  1.70234557E-01
 -1.04877255E-01  2.45075078E-02  1.65249189E-01  2.06556366E-01 -1.79931604E-02
  2.97365109E-02  5.05851936E-02  3.84226967E-02  7.86225152E-02  5.53145353E-03
  1.96781073E-01  1.09975412E-01  7.05152647E-02 -1.51516384E-01  3.21509140E-02
 -2.18127801E-02  4.02379835E-17  2.78831372E-16  0.00000000E+00  1.00000000E+00
  6.61559320E-04  4.29387536E-03 -2.19996777E-03 -2.02998243E-02 -2.34776315E-02
  2.45075078E-02  6.94449432E-02 -2.27900823E-02 -2.84868967E-02  2.97365109E-02
  1.93523000E-01 -6.97637752E-03 -5.29900586E-03  5.53145353E-03  1.17967811E-01
 -2.71387525E-02 -2.87330564E-02  3.84096821E-03  3.21509140E-02  7.71734554E-02
 -8.05587677E-02  2.52733728E-17  2.33464358E-16 -5.95487543E-32  0.00000000E+00
  1.00000000E+00  7.58307354E-02  2.66151346E-01  4.99274136E-02  2.94959128E-01
  1.58304940E-01 -1.65249189E-01  2.27900823E-02  5.08098147E-01  4.07007349E-01
 -4.24861247E-01  5.85940716E-02  5.50454702E-01  3.56722900E-01 -3.72371006E-01
  5.13549624E-02  2.51898328E-01  2.56024021E-01  2.06835529E-01 -8.31992026E-02
  1.14742873E-02 -1.19776216E-02  1.84261053E-01  8.12273068E-01 -1.91107787E-16
  0.00000000E+00  3.69019885E-16  1.00000000E+00 -1.90906968E-01 -4.07625407E-01
 -7.71132727E-02 -3.54367017E-01 -2.52205504E-04  2.06556366E-01 -2.84868967E-02
 -4.07007349E-01  1.82068652E-01  3.40331196E-01 -4.69362423E-02 -1.81757345E-01
  3.27536166E-01  1.22955013E-01 -1.69571476E-02 -2.18384288E-01 -3.38734617E-01
 -2.73655391E-01  6.21349107E-03 -8.56923861E-04  1.58470876E-02  2.86511444E-19
 -1.63464077E-16  5.69754058E-01  0.00000000E+00 -6.97195662E-32  0.00000000E+00
  1.00000000E+00  6.07770434E-02  1.29771413E-01  8.04959450E-02  3.69911779E-01
  2.06556366E-01 -1.79931604E-02  2.97365109E-02  4.24861247E-01  3.40331196E-01
  1.52837888E-01  4.89951606E-02  1.89730363E-01  1.22955013E-01  3.16975662E-01
  1.77009945E-02  3.47895667E-01  2.33661971E-01  2.85659635E-01 -1.54068359E-02
  1.58470876E-02 -2.21801706E-03  1.16086151E-17  0.00000000E+00  0.00000000E+00
  5.69754058E-01  0.00000000E+00  0.00000000E+00  0.00000000E+00  1.00000000E+00
  7.45326195E-03  1.59142380E-02 -1.11014718E-02 -5.10158021E-02 -2.84868967E-02
  2.97365109E-02  1.93523000E-01 -5.85940716E-02 -4.69362423E-02  4.89951606E-02
  5.01341056E-01 -2.61663650E-02 -1.69571476E-02  1.77009945E-02  4.42883050E-01
 -4.79794845E-02 -4.87653120E-02 -2.28561116E-02  1.58470876E-02  9.73136890E-02
 -1.01582478E-01 -1.16092226E-17  3.30269977E-16 -6.97195662E-32  0.00000000E+00
  5.69754058E-01  0.00000000E+00  0.00000000E+00  0.00000000E+00  1.00000000E+00
  1.59175128E-01  4.26948414E-01  4.92575827E-02  2.90873175E-01  4.84594575E-02
 -5.05851936E-02  6.97637752E-03  5.50454702E-01  1.81757345E-01 -1.89730363E-01
  2.61663650E-02  8.38804910E-01  3.42354928E-01 -3.57372765E-01  4.92865035E-02
  2.35842601E-01  2.36202064E-01  2.31916368E-01 -7.24898308E-03  9.99732116E-04
 -1.04358664E-03  6.97718343E-02  4.02090587E-01  4.91335394E-18 -6.14004021E-17
  1.80666304E-16  7.27666104E-01  0.00000000E+00 -1.32732857E-16  0.00000000E+00
  1.00000000E+00 -2.39037877E-01 -5.36110097E-01 -3.98210116E-02 -2.18697053E-01
  8.19226088E-02  3.84226967E-02 -5.29900586E-03 -3.56722900E-01  3.27536166E-01
  1.22955013E-01 -1.69571476E-02 -3.42354928E-01  6.99074092E-01  1.45860290E-01
 -2.01160928E-02 -1.62876775E-01 -1.82801506E-01 -1.79484720E-01 -1.21506236E-02
  1.67573417E-03  8.07652597E-04 -5.49980251E-18 -6.34001697E-19  1.64678564E-01
  0.00000000E+00 -4.56651961E-34  0.00000000E+00  5.88690339E-01  0.00000000E+00
  0.00000000E+00  0.00000000E+00  1.00000000E+00  7.60999744E-02  1.70675733E-01
  4.15678112E-02  2.28290479E-01  3.84226967E-02  7.86225152E-02  5.53145353E-03
  3.72371006E-01  1.22955013E-01  3.16975662E-01  1.77009945E-02  3.57372765E-01
  1.45860290E-01  6.86546272E-01  2.09985109E-02  1.90529929E-01  1.70311973E-01
  1.87358047E-01  1.11581696E-02  8.07652597E-04  1.60636556E-03 -5.56013554E-18
 -4.28742132E-17  0.00000000E+00  1.64678564E-01 -1.72479564E-32 -6.76300053E-17
  0.00000000E+00  5.88690339E-01  0.00000000E+00  9.29409862E-17  0.00000000E+00
  1.00000000E+00  9.33235662E-03  2.09304512E-02 -5.73275939E-03 -3.14843229E-02
 -5.29900586E-03  5.53145353E-03  1.17967811E-01 -5.13549624E-02 -1.69571476E-02
  1.77009945E-02  4.42883050E-01 -4.92865035E-02 -2.01160928E-02  2.09985109E-02
  8.35908933E-01 -2.62766359E-02 -2.63166859E-02 -2.30108131E-02  8.07652597E-04
  1.69030123E-02 -1.76444845E-02  7.75487535E-18  8.15129123E-17 -4.56651961E-34
 -1.72479564E-32  1.64678564E-01  0.00000000E+00  0.00000000E+00  0.00000000E+00
  5.88690339E-01  0.00000000E+00  0.00000000E+00  0.00000000E+00  1.00000000E+00
  1.60840101E-02  1.28746228E-01  1.09513914E-02  1.45137340E-01  9.42795409E-02
 -1.96781073E-01  2.71387525E-02  2.51898328E-01  2.18384288E-01 -3.47895667E-01
  4.79794845E-02  2.35842601E-01  1.62876775E-01 -1.90529929E-01  2.62766359E-02
  8.29858455E-02  2.34553915E-01  5.77801231E-02 -1.51076791E-01  2.08355183E-02
 -4.30452228E-02  7.91027073E-02  7.10235064E-01 -4.89005733E-16  4.03416183E-18
  2.21128098E-16  6.29936196E-01  3.44718122E-16  1.14906041E-16 -1.14906041E-16
  3.23540475E-01  0.00000000E+00  3.00701709E-17  0.00000000E+00  1.00000000E+00
  3.17646182E-03  7.77752259E-02  1.18965249E-02  1.53108112E-01  1.99586149E-01
 -1.09975412E-01  2.87330564E-02  2.56024021E-01  3.38734617E-01 -2.33661971E-01
  4.87653120E-02  2.36202064E-01  1.82801506E-01 -1.70311973E-01  2.63166859E-02
  2.34553915E-01  9.89695833E-02  6.16790616E-02 -1.71253088E-01  4.40189204E-02
 -2.46541388E-02  7.91027073E-02  7.10235064E-01 -1.63001911E-16  1.21024855E-17
  2.21128098E-16  6.29936196E-01  1.14906041E-16  3.44718122E-16 -1.14906041E-16
  3.23540475E-01  0.00000000E+00  9.02105126E-17  0.00000000E+00  3.33333333E-01
  1.00000000E+00  1.74259372E-03  7.21129814E-02  6.28190590E-04  5.80767477E-02
  6.75520094E-02 -7.05152647E-02 -3.84096821E-03  2.06835529E-01  2.73655391E-01
 -2.85659635E-01  2.28561116E-02  2.31916368E-01  1.79484720E-01 -1.87358047E-01
  2.30108131E-02  5.77801231E-02  6.16790616E-02  3.86925865E-02 -7.86264387E-02
 -9.55717795E-03  9.97641578E-03  7.91027073E-02  7.10235064E-01 -1.63001911E-16
  4.03416183E-18  6.63384294E-16  6.29936196E-01  1.14906041E-16  1.14906041E-16
 -3.44718122E-16  3.23540475E-01  0.00000000E+00  3.00701709E-17  0.00000000E+00
  3.33333333E-01  3.33333333E-01  1.00000000E+00 -7.92014127E-03 -3.12760818E-02
 -1.90596701E-02 -1.60739503E-01 -1.38140027E-01  1.51516384E-01 -3.21509140E-02
 -8.31992026E-02 -6.21349107E-03  1.54068359E-02 -1.58470876E-02 -7.24898308E-03
  1.21506236E-02 -1.11581696E-02 -8.07652597E-04 -1.51076791E-01 -1.71253088E-01
 -7.86264387E-02  1.90762823E-01 -3.76712304E-02  4.09077503E-02  4.78093507E-32
  0.00000000E+00  6.98737325E-18 -2.82327591E-16  0.00000000E+00  1.04222958E-31
  1.99023101E-16  1.99023101E-16 -1.90112070E-47  0.00000000E+00  5.20830637E-17
  0.00000000E+00  0.00000000E+00  0.00000000E+00  0.00000000E+00  0.00000000E+00
  1.00000000E+00 -9.71269483E-04 -3.83547499E-03  2.62858447E-03  2.21681362E-02
  1.90513648E-02 -3.21509140E-02 -7.71734554E-02  1.14742873E-02  8.56923861E-04
 -1.58470876E-02 -9.73136890E-02  9.99732116E-04 -1.67573417E-03 -8.07652597E-04
 -1.69030123E-02  2.08355183E-02  4.40189204E-02 -9.55717795E-03 -3.76712304E-02
 -7.71930933E-02  1.20028324E-01 -4.78627871E-32 -1.75485499E-31  3.83005101E-16
  0.00000000E+00 -2.82327591E-16 -1.04222958E-31 -1.99023101E-16 -1.90112070E-47
  1.99023101E-16  0.00000000E+00  0.00000000E+00  0.00000000E+00  0.00000000E+00
  0.00000000E+00  0.00000000E+00  0.00000000E+00  0.00000000E+00  1.00000000E+00
  3.09212849E-04  1.22105983E-03 -2.74389069E-03 -2.31405698E-02 -3.21509140E-02
  2.18127801E-02  8.05587677E-02 -1.19776216E-02 -1.58470876E-02  2.21801706E-03
  1.01582478E-01 -1.04358664E-03 -8.07652597E-04 -1.60636556E-03  1.76444845E-02
 -4.30452228E-02 -2.46541388E-02  9.97641578E-03  4.09077503E-02  1.20028324E-01
 -8.75022264E-02 -4.85984680E-32  0.00000000E+00  0.00000000E+00  3.83005101E-16
  6.98737325E-18 -1.04222958E-31 -1.90112070E-47 -1.99023101E-16  1.99023101E-16
  0.00000000E+00  0.00000000E+00  0.00000000E+00  5.20830637E-17  0.00000000E+00
  0.00000000E+00  0.00000000E+00  0.00000000E+00  0.00000000E+00  1.00000000E+00
  6.80682371E-08  2.24989865E-03  5.69711388E-15  3.82628869E-05  6.89078600E-05
 -1.05833402E-04 -6.46601277E-05  7.79251573E-03  1.32105893E-02 -2.02897262E-02
 -1.23962403E-02  3.00107978E-02  2.66461416E-02 -4.09249660E-02 -2.50035761E-02
  6.84130256E-06  1.57901656E-05  6.05442886E-06 -1.75185299E-05 -1.07031462E-05
  1.64386237E-05  2.58323111E-06  1.61334250E-02  2.65679798E-03 -1.73774753E-02
 -3.17440875E-02  6.03955103E-02  9.17053739E-03 -5.99822750E-02 -1.09571877E-01
  5.18225360E-02  4.11842090E-03 -2.69375985E-02 -4.92079240E-02  1.10251563E-03
  1.04926016E-02  3.29621698E-02 -2.54609160E-03 -4.65104125E-03  3.04213399E-02
  1.00000000E+00  2.38764856E-04  2.55091021E-02  3.82628869E-05  6.49351557E-03
  6.79683105E-03 -1.04390378E-02 -6.37784955E-03  6.92362556E-02  9.18414360E-02
 -1.41056356E-01 -8.61799943E-02  1.83462907E-01  1.51520951E-01 -2.32716235E-01
 -1.42180646E-01  4.23112079E-03  8.07395570E-03  3.89322024E-03 -7.52283478E-03
 -4.59616196E-03  7.05909976E-03  1.61334250E-02  1.84032993E-01  1.91134458E-02
 -1.25016442E-01 -2.28372235E-01  3.42011569E-01  4.03659979E-02 -2.64024264E-01
 -4.82303049E-01  3.04934589E-01  2.25378137E-02 -1.47414408E-01 -2.69287441E-01
  8.31087954E-02  1.34213986E-01  2.56503767E-01 -1.38570079E-02 -2.53131173E-02
  1.65567000E-01  2.19058872E-01  1.00000000E+00 -4.98277603E-04 -2.52138215E-02
 -6.89078600E-05 -6.79683105E-03 -4.40701601E-03  1.11733981E-02  6.82651535E-03